 Entering Gaussian System, Link 0=/opt/software/gaussian/g16.b01/g16
 Initial command:
 /opt/software/gaussian/g16.b01/l1.exe "/scratch/tingyi/2814721/Gau-2922721.inp" -scrdir="/scratch/tingyi/2814721/"
 Entering Link 1 = /opt/software/gaussian/g16.b01/l1.exe PID=   2923272.
  
 Copyright (c) 1988-2017, Gaussian, Inc.  All Rights Reserved.
  
 This is part of the Gaussian(R) 16 program.  It is based on
 the Gaussian(R) 09 system (copyright 2009, Gaussian, Inc.),
 the Gaussian(R) 03 system (copyright 2003, Gaussian, Inc.),
 the Gaussian(R) 98 system (copyright 1998, Gaussian, Inc.),
 the Gaussian(R) 94 system (copyright 1995, Gaussian, Inc.),
 the Gaussian 92(TM) system (copyright 1992, Gaussian, Inc.),
 the Gaussian 90(TM) system (copyright 1990, Gaussian, Inc.),
 the Gaussian 88(TM) system (copyright 1988, Gaussian, Inc.),
 the Gaussian 86(TM) system (copyright 1986, Carnegie Mellon
 University), and the Gaussian 82(TM) system (copyright 1983,
 Carnegie Mellon University). Gaussian is a federally registered
 trademark of Gaussian, Inc.
  
 This software contains proprietary and confidential information,
 including trade secrets, belonging to Gaussian, Inc.
  
 This software is provided under written license and may be
 used, copied, transmitted, or stored only in accord with that
 written license.
  
 The following legend is applicable only to US Government
 contracts under FAR:
  
                    RESTRICTED RIGHTS LEGEND
  
 Use, reproduction and disclosure by the US Government is
 subject to restrictions as set forth in subparagraphs (a)
 and (c) of the Commercial Computer Software - Restricted
 Rights clause in FAR 52.227-19.
  
 Gaussian, Inc.
 340 Quinnipiac St., Bldg. 40, Wallingford CT 06492
  
  
 ---------------------------------------------------------------
 Warning -- This program may not be used in any manner that
 competes with the business of Gaussian, Inc. or will provide
 assistance to any competitor of Gaussian, Inc.  The licensee
 of this program is prohibited from giving any competitor of
 Gaussian, Inc. access to this program.  By using this program,
 the user acknowledges that Gaussian, Inc. is engaged in the
 business of creating and licensing software in the field of
 computational chemistry and represents and warrants to the
 licensee that it is not a competitor of Gaussian, Inc. and that
 it will not use this program in any manner prohibited above.
 ---------------------------------------------------------------
  

 Cite this work as:
 Gaussian 16, Revision B.01,
 M. J. Frisch, G. W. Trucks, H. B. Schlegel, G. E. Scuseria, 
 M. A. Robb, J. R. Cheeseman, G. Scalmani, V. Barone, 
 G. A. Petersson, H. Nakatsuji, X. Li, M. Caricato, A. V. Marenich, 
 J. Bloino, B. G. Janesko, R. Gomperts, B. Mennucci, H. P. Hratchian, 
 J. V. Ortiz, A. F. Izmaylov, J. L. Sonnenberg, D. Williams-Young, 
 F. Ding, F. Lipparini, F. Egidi, J. Goings, B. Peng, A. Petrone, 
 T. Henderson, D. Ranasinghe, V. G. Zakrzewski, J. Gao, N. Rega, 
 G. Zheng, W. Liang, M. Hada, M. Ehara, K. Toyota, R. Fukuda, 
 J. Hasegawa, M. Ishida, T. Nakajima, Y. Honda, O. Kitao, H. Nakai, 
 T. Vreven, K. Throssell, J. A. Montgomery, Jr., J. E. Peralta, 
 F. Ogliaro, M. J. Bearpark, J. J. Heyd, E. N. Brothers, K. N. Kudin, 
 V. N. Staroverov, T. A. Keith, R. Kobayashi, J. Normand, 
 K. Raghavachari, A. P. Rendell, J. C. Burant, S. S. Iyengar, 
 J. Tomasi, M. Cossi, J. M. Millam, M. Klene, C. Adamo, R. Cammi, 
 J. W. Ochterski, R. L. Martin, K. Morokuma, O. Farkas, 
 J. B. Foresman, and D. J. Fox, Gaussian, Inc., Wallingford CT, 2016.
 
 ******************************************
 Gaussian 16:  EM64L-G16RevB.01 20-Dec-2017
                14-Oct-2025 
 ******************************************
 %nproc=32
 Will use up to   32 processors via shared memory.
 %mem=32GB
 %Chk=C24-opt.chk
 ---------------------
 #p B3LYP/6-31G(d) Opt
 ---------------------
 1/18=20,19=15,26=3,38=1/1,3;
 2/9=110,12=2,17=6,18=5,40=1/2;
 3/5=1,6=6,7=1,11=2,25=1,30=1,71=1,74=-5/1,2,3;
 4//1;
 5/5=2,38=5/2;
 6/7=2,8=2,9=2,10=2,28=1/1;
 7//1,2,3,16;
 1/18=20,19=15,26=3/3(2);
 2/9=110/2;
 99//99;
 2/9=110/2;
 3/5=1,6=6,7=1,11=2,25=1,30=1,71=1,74=-5/1,2,3;
 4/5=5,16=3,69=1/1;
 5/5=2,38=5/2;
 7//1,2,3,16;
 1/18=20,19=15,26=3/3(-5);
 2/9=110/2;
 6/7=2,8=2,9=2,10=2,19=2,28=1/1;
 99/9=1/99;
 Leave Link    1 at Tue Oct 14 15:46:32 2025, MaxMem=  4294967296 cpu:               2.9 elap:               0.2
 (Enter /opt/software/gaussian/g16.b01/l101.exe)
 ----------------------------------
 Optimization of molecular geometry
 ----------------------------------
 Symbolic Z-matrix:
 Charge =  0 Multiplicity = 1
 C                     4.30632  -0.09807  -1.86679 
 C                     4.90899   0.48305  -0.59881 
 C                     3.89214   1.33892   0.20018 
 C                     2.41351   0.85233  -0.05012 
 C                     2.25474  -0.67933  -0.33601 
 C                     3.12625  -1.03457  -1.59216 
 C                     2.75116  -1.55924   0.83501 
 C                     0.73397  -0.97116  -0.68113 
 C                     0.44609  -2.43637  -1.06563 
 C                    -0.92968  -2.57421  -1.70457 
 C                    -2.05887  -2.02077  -0.82453 
 C                    -3.38111  -2.18823  -1.58285 
 C                    -1.77071  -0.5476   -0.38703 
 C                    -0.34889  -0.42255   0.32396 
 C                    -0.03578   1.0743    0.5964 
 C                     1.41177   1.3527    1.00307 
 C                    -0.38786  -1.18151   1.67394 
 C                    -2.94343   0.03285   0.46094 
 C                    -3.87588   0.93159  -0.36841 
 C                    -5.07638   1.52293   0.39715 
 C                    -4.64671   2.47702   1.51181 
 C                    -6.00883   0.44236   0.94562 
 C                     4.01259   2.8072   -0.28705 
 C                     4.312     1.33419   1.6852 
 H                     3.97562   0.71854  -2.52082 
 H                     5.07423  -0.64329  -2.42769 
 H                     5.79073   1.08224  -0.86086 
 H                     5.29798  -0.33791   0.0142 
 H                     2.09995   1.34237  -0.98713 
 H                     2.51353  -1.03878  -2.5035 
 H                     3.5068   -2.06078  -1.49797 
 H                     2.42908  -1.19298   1.80895 
 H                     3.84202  -1.61236   0.8785 
 H                     2.41515  -2.59605   0.74048 
 H                     0.56298  -0.39638  -1.60748 
 H                     0.50785  -3.10007  -0.19821 
 H                     1.18546  -2.80638  -1.78349 
 H                    -0.92853  -2.05454  -2.67161 
 H                    -1.11324  -3.63411  -1.92158 
 H                    -2.12814  -2.64848   0.07261 
 H                    -3.42405  -1.52946  -2.4568 
 H                    -3.49753  -3.21943  -1.93702 
 H                    -4.2431   -1.9761   -0.94306 
 H                    -1.70606   0.04922  -1.30907 
 H                    -0.25956   1.66278  -0.30339 
 H                    -0.67862   1.47254   1.38869 
 H                     1.61349   0.91127   1.98319 
 H                     1.51543   2.43637   1.13178 
 H                    -1.24978  -0.88253   2.27896 
 H                     0.48008  -0.9788    2.29949 
 H                    -0.45355  -2.26446   1.5498 
 H                    -3.50704  -0.78545   0.92137 
 H                    -2.5678    0.6319    1.29179 
 H                    -4.26179   0.37663  -1.22975 
 H                    -3.28698   1.7607   -0.78333 
 H                    -5.65265   2.11203  -0.32954 
 H                    -4.13573   1.95269   2.32651 
 H                    -5.51882   2.98153   1.94082 
 H                    -3.97219   3.24856   1.12529 
 H                    -6.29634  -0.26246   0.15798 
 H                    -5.54522  -0.12319   1.76026 
 H                    -6.92639   0.89302   1.33899 
 H                     3.76829   2.89768  -1.35137 
 H                     3.34288   3.47348   0.26706 
 H                     5.03219   3.18786  -0.15209 
 H                     3.71059   2.02807   2.28248 
 H                     5.35768   1.64672   1.79298 
 H                     4.22568   0.34196   2.13539 
 
 ITRead=  0  0  0  0  0  0  0  0  0  0  0  0  0  0  0  0  0  0  0  0
 ITRead=  0  0  0  0  0  0  0  0  0  0  0  0  0  0  0  0  0  0  0  0
 ITRead=  0  0  0  0  0  0  0  0  0  0  0  0  0  0  0  0  0  0  0  0
 ITRead=  0  0  0  0  0  0  0  0
 MicOpt= -1 -1 -1 -1 -1 -1 -1 -1 -1 -1 -1 -1 -1 -1 -1 -1 -1 -1 -1 -1
 MicOpt= -1 -1 -1 -1 -1 -1 -1 -1 -1 -1 -1 -1 -1 -1 -1 -1 -1 -1 -1 -1
 MicOpt= -1 -1 -1 -1 -1 -1 -1 -1 -1 -1 -1 -1 -1 -1 -1 -1 -1 -1 -1 -1
 MicOpt= -1 -1 -1 -1 -1 -1 -1 -1
 NAtoms=     68 NQM=       68 NQMF=       0 NMMI=      0 NMMIF=      0
                NMic=       0 NMicF=      0.
                    Isotopes and Nuclear Properties:
 (Nuclear quadrupole moments (NQMom) in fm**2, nuclear magnetic moments (NMagM)
  in nuclear magnetons)

  Atom         1           2           3           4           5           6           7           8           9          10
 IAtWgt=          12          12          12          12          12          12          12          12          12          12
 AtmWgt=  12.0000000  12.0000000  12.0000000  12.0000000  12.0000000  12.0000000  12.0000000  12.0000000  12.0000000  12.0000000
 NucSpn=           0           0           0           0           0           0           0           0           0           0
 AtZEff=  -0.0000000  -0.0000000  -0.0000000  -0.0000000  -0.0000000  -0.0000000  -0.0000000  -0.0000000  -0.0000000  -0.0000000
 NQMom=    0.0000000   0.0000000   0.0000000   0.0000000   0.0000000   0.0000000   0.0000000   0.0000000   0.0000000   0.0000000
 NMagM=    0.0000000   0.0000000   0.0000000   0.0000000   0.0000000   0.0000000   0.0000000   0.0000000   0.0000000   0.0000000
 AtZNuc=   6.0000000   6.0000000   6.0000000   6.0000000   6.0000000   6.0000000   6.0000000   6.0000000   6.0000000   6.0000000

  Atom        11          12          13          14          15          16          17          18          19          20
 IAtWgt=          12          12          12          12          12          12          12          12          12          12
 AtmWgt=  12.0000000  12.0000000  12.0000000  12.0000000  12.0000000  12.0000000  12.0000000  12.0000000  12.0000000  12.0000000
 NucSpn=           0           0           0           0           0           0           0           0           0           0
 AtZEff=  -0.0000000  -0.0000000  -0.0000000  -0.0000000  -0.0000000  -0.0000000  -0.0000000  -0.0000000  -0.0000000  -0.0000000
 NQMom=    0.0000000   0.0000000   0.0000000   0.0000000   0.0000000   0.0000000   0.0000000   0.0000000   0.0000000   0.0000000
 NMagM=    0.0000000   0.0000000   0.0000000   0.0000000   0.0000000   0.0000000   0.0000000   0.0000000   0.0000000   0.0000000
 AtZNuc=   6.0000000   6.0000000   6.0000000   6.0000000   6.0000000   6.0000000   6.0000000   6.0000000   6.0000000   6.0000000

  Atom        21          22          23          24          25          26          27          28          29          30
 IAtWgt=          12          12          12          12           1           1           1           1           1           1
 AtmWgt=  12.0000000  12.0000000  12.0000000  12.0000000   1.0078250   1.0078250   1.0078250   1.0078250   1.0078250   1.0078250
 NucSpn=           0           0           0           0           1           1           1           1           1           1
 AtZEff=  -0.0000000  -0.0000000  -0.0000000  -0.0000000  -0.0000000  -0.0000000  -0.0000000  -0.0000000  -0.0000000  -0.0000000
 NQMom=    0.0000000   0.0000000   0.0000000   0.0000000   0.0000000   0.0000000   0.0000000   0.0000000   0.0000000   0.0000000
 NMagM=    0.0000000   0.0000000   0.0000000   0.0000000   2.7928460   2.7928460   2.7928460   2.7928460   2.7928460   2.7928460
 AtZNuc=   6.0000000   6.0000000   6.0000000   6.0000000   1.0000000   1.0000000   1.0000000   1.0000000   1.0000000   1.0000000

  Atom        31          32          33          34          35          36          37          38          39          40
 IAtWgt=           1           1           1           1           1           1           1           1           1           1
 AtmWgt=   1.0078250   1.0078250   1.0078250   1.0078250   1.0078250   1.0078250   1.0078250   1.0078250   1.0078250   1.0078250
 NucSpn=           1           1           1           1           1           1           1           1           1           1
 AtZEff=  -0.0000000  -0.0000000  -0.0000000  -0.0000000  -0.0000000  -0.0000000  -0.0000000  -0.0000000  -0.0000000  -0.0000000
 NQMom=    0.0000000   0.0000000   0.0000000   0.0000000   0.0000000   0.0000000   0.0000000   0.0000000   0.0000000   0.0000000
 NMagM=    2.7928460   2.7928460   2.7928460   2.7928460   2.7928460   2.7928460   2.7928460   2.7928460   2.7928460   2.7928460
 AtZNuc=   1.0000000   1.0000000   1.0000000   1.0000000   1.0000000   1.0000000   1.0000000   1.0000000   1.0000000   1.0000000

  Atom        41          42          43          44          45          46          47          48          49          50
 IAtWgt=           1           1           1           1           1           1           1           1           1           1
 AtmWgt=   1.0078250   1.0078250   1.0078250   1.0078250   1.0078250   1.0078250   1.0078250   1.0078250   1.0078250   1.0078250
 NucSpn=           1           1           1           1           1           1           1           1           1           1
 AtZEff=  -0.0000000  -0.0000000  -0.0000000  -0.0000000  -0.0000000  -0.0000000  -0.0000000  -0.0000000  -0.0000000  -0.0000000
 NQMom=    0.0000000   0.0000000   0.0000000   0.0000000   0.0000000   0.0000000   0.0000000   0.0000000   0.0000000   0.0000000
 NMagM=    2.7928460   2.7928460   2.7928460   2.7928460   2.7928460   2.7928460   2.7928460   2.7928460   2.7928460   2.7928460
 AtZNuc=   1.0000000   1.0000000   1.0000000   1.0000000   1.0000000   1.0000000   1.0000000   1.0000000   1.0000000   1.0000000

  Atom        51          52          53          54          55          56          57          58          59          60
 IAtWgt=           1           1           1           1           1           1           1           1           1           1
 AtmWgt=   1.0078250   1.0078250   1.0078250   1.0078250   1.0078250   1.0078250   1.0078250   1.0078250   1.0078250   1.0078250
 NucSpn=           1           1           1           1           1           1           1           1           1           1
 AtZEff=  -0.0000000  -0.0000000  -0.0000000  -0.0000000  -0.0000000  -0.0000000  -0.0000000  -0.0000000  -0.0000000  -0.0000000
 NQMom=    0.0000000   0.0000000   0.0000000   0.0000000   0.0000000   0.0000000   0.0000000   0.0000000   0.0000000   0.0000000
 NMagM=    2.7928460   2.7928460   2.7928460   2.7928460   2.7928460   2.7928460   2.7928460   2.7928460   2.7928460   2.7928460
 AtZNuc=   1.0000000   1.0000000   1.0000000   1.0000000   1.0000000   1.0000000   1.0000000   1.0000000   1.0000000   1.0000000

  Atom        61          62          63          64          65          66          67          68
 IAtWgt=           1           1           1           1           1           1           1           1
 AtmWgt=   1.0078250   1.0078250   1.0078250   1.0078250   1.0078250   1.0078250   1.0078250   1.0078250
 NucSpn=           1           1           1           1           1           1           1           1
 AtZEff=  -0.0000000  -0.0000000  -0.0000000  -0.0000000  -0.0000000  -0.0000000  -0.0000000  -0.0000000
 NQMom=    0.0000000   0.0000000   0.0000000   0.0000000   0.0000000   0.0000000   0.0000000   0.0000000
 NMagM=    2.7928460   2.7928460   2.7928460   2.7928460   2.7928460   2.7928460   2.7928460   2.7928460
 AtZNuc=   1.0000000   1.0000000   1.0000000   1.0000000   1.0000000   1.0000000   1.0000000   1.0000000
 Leave Link  101 at Tue Oct 14 15:46:33 2025, MaxMem=  4294967296 cpu:               9.2 elap:               0.4
 (Enter /opt/software/gaussian/g16.b01/l103.exe)

 GradGradGradGradGradGradGradGradGradGradGradGradGradGradGradGradGradGrad
 Berny optimization.
 Initialization pass.
                           ----------------------------
                           !    Initial Parameters    !
                           ! (Angstroms and Degrees)  !
 --------------------------                            --------------------------
 ! Name  Definition              Value          Derivative Info.                !
 --------------------------------------------------------------------------------
 ! R1    R(1,2)                  1.5194         estimate D2E/DX2                !
 ! R2    R(1,6)                  1.5313         estimate D2E/DX2                !
 ! R3    R(1,25)                 1.0973         estimate D2E/DX2                !
 ! R4    R(1,26)                 1.0962         estimate D2E/DX2                !
 ! R5    R(2,3)                  1.5508         estimate D2E/DX2                !
 ! R6    R(2,27)                 1.0978         estimate D2E/DX2                !
 ! R7    R(2,28)                 1.0959         estimate D2E/DX2                !
 ! R8    R(3,4)                  1.5766         estimate D2E/DX2                !
 ! R9    R(3,23)                 1.5517         estimate D2E/DX2                !
 ! R10   R(3,24)                 1.5432         estimate D2E/DX2                !
 ! R11   R(4,5)                  1.5662         estimate D2E/DX2                !
 ! R12   R(4,16)                 1.5372         estimate D2E/DX2                !
 ! R13   R(4,29)                 1.1029         estimate D2E/DX2                !
 ! R14   R(5,6)                  1.5696         estimate D2E/DX2                !
 ! R15   R(5,7)                  1.5466         estimate D2E/DX2                !
 ! R16   R(5,8)                  1.5865         estimate D2E/DX2                !
 ! R17   R(6,30)                 1.0982         estimate D2E/DX2                !
 ! R18   R(6,31)                 1.0985         estimate D2E/DX2                !
 ! R19   R(7,32)                 1.0892         estimate D2E/DX2                !
 ! R20   R(7,33)                 1.093          estimate D2E/DX2                !
 ! R21   R(7,34)                 1.094          estimate D2E/DX2                !
 ! R22   R(8,9)                  1.5419         estimate D2E/DX2                !
 ! R23   R(8,14)                 1.576          estimate D2E/DX2                !
 ! R24   R(8,35)                 1.1035         estimate D2E/DX2                !
 ! R25   R(9,10)                 1.5232         estimate D2E/DX2                !
 ! R26   R(9,36)                 1.0939         estimate D2E/DX2                !
 ! R27   R(9,37)                 1.0949         estimate D2E/DX2                !
 ! R28   R(10,11)                1.5349         estimate D2E/DX2                !
 ! R29   R(10,38)                1.0978         estimate D2E/DX2                !
 ! R30   R(10,39)                1.0973         estimate D2E/DX2                !
 ! R31   R(11,12)                1.5334         estimate D2E/DX2                !
 ! R32   R(11,13)                1.5635         estimate D2E/DX2                !
 ! R33   R(11,40)                1.0971         estimate D2E/DX2                !
 ! R34   R(12,41)                1.0953         estimate D2E/DX2                !
 ! R35   R(12,42)                1.0965         estimate D2E/DX2                !
 ! R36   R(12,43)                1.0942         estimate D2E/DX2                !
 ! R37   R(13,14)                1.5946         estimate D2E/DX2                !
 ! R38   R(13,18)                1.5592         estimate D2E/DX2                !
 ! R39   R(13,44)                1.1002         estimate D2E/DX2                !
 ! R40   R(14,15)                1.5533         estimate D2E/DX2                !
 ! R41   R(14,17)                1.5492         estimate D2E/DX2                !
 ! R42   R(15,16)                1.5291         estimate D2E/DX2                !
 ! R43   R(15,45)                1.0982         estimate D2E/DX2                !
 ! R44   R(15,46)                1.0952         estimate D2E/DX2                !
 ! R45   R(16,47)                1.0937         estimate D2E/DX2                !
 ! R46   R(16,48)                1.0962         estimate D2E/DX2                !
 ! R47   R(17,49)                1.0947         estimate D2E/DX2                !
 ! R48   R(17,50)                1.0889         estimate D2E/DX2                !
 ! R49   R(17,51)                1.092          estimate D2E/DX2                !
 ! R50   R(18,19)                1.5379         estimate D2E/DX2                !
 ! R51   R(18,52)                1.0951         estimate D2E/DX2                !
 ! R52   R(18,53)                1.091          estimate D2E/DX2                !
 ! R53   R(19,20)                1.5417         estimate D2E/DX2                !
 ! R54   R(19,54)                1.0949         estimate D2E/DX2                !
 ! R55   R(19,55)                1.0983         estimate D2E/DX2                !
 ! R56   R(20,21)                1.5288         estimate D2E/DX2                !
 ! R57   R(20,22)                1.529          estimate D2E/DX2                !
 ! R58   R(20,56)                1.0987         estimate D2E/DX2                !
 ! R59   R(21,57)                1.0953         estimate D2E/DX2                !
 ! R60   R(21,58)                1.0951         estimate D2E/DX2                !
 ! R61   R(21,59)                1.0953         estimate D2E/DX2                !
 ! R62   R(22,60)                1.0954         estimate D2E/DX2                !
 ! R63   R(22,61)                1.0947         estimate D2E/DX2                !
 ! R64   R(22,62)                1.0953         estimate D2E/DX2                !
 ! R65   R(23,63)                1.0957         estimate D2E/DX2                !
 ! R66   R(23,64)                1.0952         estimate D2E/DX2                !
 ! R67   R(23,65)                1.0967         estimate D2E/DX2                !
 ! R68   R(24,66)                1.0954         estimate D2E/DX2                !
 ! R69   R(24,67)                1.0967         estimate D2E/DX2                !
 ! R70   R(24,68)                1.093          estimate D2E/DX2                !
 ! A1    A(2,1,6)              112.9474         estimate D2E/DX2                !
 ! A2    A(2,1,25)             109.4101         estimate D2E/DX2                !
 ! A3    A(2,1,26)             109.8392         estimate D2E/DX2                !
 ! A4    A(6,1,25)             109.2553         estimate D2E/DX2                !
 ! A5    A(6,1,26)             109.113          estimate D2E/DX2                !
 ! A6    A(25,1,26)            106.0402         estimate D2E/DX2                !
 ! A7    A(1,2,3)              112.3925         estimate D2E/DX2                !
 ! A8    A(1,2,27)             109.1547         estimate D2E/DX2                !
 ! A9    A(1,2,28)             108.7278         estimate D2E/DX2                !
 ! A10   A(3,2,27)             110.3901         estimate D2E/DX2                !
 ! A11   A(3,2,28)             110.9758         estimate D2E/DX2                !
 ! A12   A(27,2,28)            104.9104         estimate D2E/DX2                !
 ! A13   A(2,3,4)              111.2739         estimate D2E/DX2                !
 ! A14   A(2,3,23)             108.0323         estimate D2E/DX2                !
 ! A15   A(2,3,24)             108.403          estimate D2E/DX2                !
 ! A16   A(4,3,23)             108.3598         estimate D2E/DX2                !
 ! A17   A(4,3,24)             114.0152         estimate D2E/DX2                !
 ! A18   A(23,3,24)            106.495          estimate D2E/DX2                !
 ! A19   A(3,4,5)              115.2059         estimate D2E/DX2                !
 ! A20   A(3,4,16)             113.6983         estimate D2E/DX2                !
 ! A21   A(3,4,29)             105.3299         estimate D2E/DX2                !
 ! A22   A(5,4,16)             112.1684         estimate D2E/DX2                !
 ! A23   A(5,4,29)             104.5143         estimate D2E/DX2                !
 ! A24   A(16,4,29)            104.6059         estimate D2E/DX2                !
 ! A25   A(4,5,6)              108.1278         estimate D2E/DX2                !
 ! A26   A(4,5,7)              112.6836         estimate D2E/DX2                !
 ! A27   A(4,5,8)              108.4678         estimate D2E/DX2                !
 ! A28   A(6,5,7)              107.3957         estimate D2E/DX2                !
 ! A29   A(6,5,8)              108.4522         estimate D2E/DX2                !
 ! A30   A(7,5,8)              111.5757         estimate D2E/DX2                !
 ! A31   A(1,6,5)              115.6576         estimate D2E/DX2                !
 ! A32   A(1,6,30)             106.4677         estimate D2E/DX2                !
 ! A33   A(1,6,31)             108.6456         estimate D2E/DX2                !
 ! A34   A(5,6,30)             110.8068         estimate D2E/DX2                !
 ! A35   A(5,6,31)             109.5817         estimate D2E/DX2                !
 ! A36   A(30,6,31)            105.1203         estimate D2E/DX2                !
 ! A37   A(5,7,32)             113.0043         estimate D2E/DX2                !
 ! A38   A(5,7,33)             112.2171         estimate D2E/DX2                !
 ! A39   A(5,7,34)             112.036          estimate D2E/DX2                !
 ! A40   A(32,7,33)            106.0142         estimate D2E/DX2                !
 ! A41   A(32,7,34)            107.7652         estimate D2E/DX2                !
 ! A42   A(33,7,34)            105.3021         estimate D2E/DX2                !
 ! A43   A(5,8,9)              114.0795         estimate D2E/DX2                !
 ! A44   A(5,8,14)             117.1203         estimate D2E/DX2                !
 ! A45   A(5,8,35)             103.6112         estimate D2E/DX2                !
 ! A46   A(9,8,14)             111.1938         estimate D2E/DX2                !
 ! A47   A(9,8,35)             104.8736         estimate D2E/DX2                !
 ! A48   A(14,8,35)            104.335          estimate D2E/DX2                !
 ! A49   A(8,9,10)             111.0528         estimate D2E/DX2                !
 ! A50   A(8,9,36)             111.6078         estimate D2E/DX2                !
 ! A51   A(8,9,37)             111.0093         estimate D2E/DX2                !
 ! A52   A(10,9,36)            109.191          estimate D2E/DX2                !
 ! A53   A(10,9,37)            107.7172         estimate D2E/DX2                !
 ! A54   A(36,9,37)            106.0638         estimate D2E/DX2                !
 ! A55   A(9,10,11)            113.0385         estimate D2E/DX2                !
 ! A56   A(9,10,38)            109.0099         estimate D2E/DX2                !
 ! A57   A(9,10,39)            108.7502         estimate D2E/DX2                !
 ! A58   A(11,10,38)           109.582          estimate D2E/DX2                !
 ! A59   A(11,10,39)           109.7912         estimate D2E/DX2                !
 ! A60   A(38,10,39)           106.4506         estimate D2E/DX2                !
 ! A61   A(10,11,12)           108.1464         estimate D2E/DX2                !
 ! A62   A(10,11,13)           111.3817         estimate D2E/DX2                !
 ! A63   A(10,11,40)           107.9997         estimate D2E/DX2                !
 ! A64   A(12,11,13)           113.5893         estimate D2E/DX2                !
 ! A65   A(12,11,40)           106.7061         estimate D2E/DX2                !
 ! A66   A(13,11,40)           108.7776         estimate D2E/DX2                !
 ! A67   A(11,12,41)           111.2676         estimate D2E/DX2                !
 ! A68   A(11,12,42)           110.7304         estimate D2E/DX2                !
 ! A69   A(11,12,43)           111.651          estimate D2E/DX2                !
 ! A70   A(41,12,42)           107.683          estimate D2E/DX2                !
 ! A71   A(41,12,43)           108.606          estimate D2E/DX2                !
 ! A72   A(42,12,43)           106.7094         estimate D2E/DX2                !
 ! A73   A(11,13,14)           111.2833         estimate D2E/DX2                !
 ! A74   A(11,13,18)           111.3648         estimate D2E/DX2                !
 ! A75   A(11,13,44)           106.704          estimate D2E/DX2                !
 ! A76   A(14,13,18)           113.5121         estimate D2E/DX2                !
 ! A77   A(14,13,44)           106.1843         estimate D2E/DX2                !
 ! A78   A(18,13,44)           107.3383         estimate D2E/DX2                !
 ! A79   A(8,14,13)            107.5173         estimate D2E/DX2                !
 ! A80   A(8,14,15)            107.9867         estimate D2E/DX2                !
 ! A81   A(8,14,17)            113.7338         estimate D2E/DX2                !
 ! A82   A(13,14,15)           109.4816         estimate D2E/DX2                !
 ! A83   A(13,14,17)           109.129          estimate D2E/DX2                !
 ! A84   A(15,14,17)           108.9252         estimate D2E/DX2                !
 ! A85   A(14,15,16)           114.3874         estimate D2E/DX2                !
 ! A86   A(14,15,45)           109.3663         estimate D2E/DX2                !
 ! A87   A(14,15,46)           111.036          estimate D2E/DX2                !
 ! A88   A(16,15,45)           108.2546         estimate D2E/DX2                !
 ! A89   A(16,15,46)           107.2794         estimate D2E/DX2                !
 ! A90   A(45,15,46)           106.1561         estimate D2E/DX2                !
 ! A91   A(4,16,15)            112.0496         estimate D2E/DX2                !
 ! A92   A(4,16,47)            111.2479         estimate D2E/DX2                !
 ! A93   A(4,16,48)            109.914          estimate D2E/DX2                !
 ! A94   A(15,16,47)           109.8431         estimate D2E/DX2                !
 ! A95   A(15,16,48)           107.501          estimate D2E/DX2                !
 ! A96   A(47,16,48)           106.0416         estimate D2E/DX2                !
 ! A97   A(14,17,49)           111.5688         estimate D2E/DX2                !
 ! A98   A(14,17,50)           112.9143         estimate D2E/DX2                !
 ! A99   A(14,17,51)           112.8484         estimate D2E/DX2                !
 ! A100  A(49,17,50)           105.0244         estimate D2E/DX2                !
 ! A101  A(49,17,51)           106.6375         estimate D2E/DX2                !
 ! A102  A(50,17,51)           107.3298         estimate D2E/DX2                !
 ! A103  A(13,18,19)           112.352          estimate D2E/DX2                !
 ! A104  A(13,18,52)           109.7285         estimate D2E/DX2                !
 ! A105  A(13,18,53)           111.0762         estimate D2E/DX2                !
 ! A106  A(19,18,52)           110.5717         estimate D2E/DX2                !
 ! A107  A(19,18,53)           107.3711         estimate D2E/DX2                !
 ! A108  A(52,18,53)           105.504          estimate D2E/DX2                !
 ! A109  A(18,19,20)           115.3718         estimate D2E/DX2                !
 ! A110  A(18,19,54)           109.9828         estimate D2E/DX2                !
 ! A111  A(18,19,55)           108.65           estimate D2E/DX2                !
 ! A112  A(20,19,54)           108.0948         estimate D2E/DX2                !
 ! A113  A(20,19,55)           108.3939         estimate D2E/DX2                !
 ! A114  A(54,19,55)           105.9264         estimate D2E/DX2                !
 ! A115  A(19,20,21)           112.4919         estimate D2E/DX2                !
 ! A116  A(19,20,22)           112.4524         estimate D2E/DX2                !
 ! A117  A(19,20,56)           106.5961         estimate D2E/DX2                !
 ! A118  A(21,20,22)           110.5419         estimate D2E/DX2                !
 ! A119  A(21,20,56)           107.1584         estimate D2E/DX2                !
 ! A120  A(22,20,56)           107.236          estimate D2E/DX2                !
 ! A121  A(20,21,57)           112.0035         estimate D2E/DX2                !
 ! A122  A(20,21,58)           110.4462         estimate D2E/DX2                !
 ! A123  A(20,21,59)           110.8172         estimate D2E/DX2                !
 ! A124  A(57,21,58)           107.4979         estimate D2E/DX2                !
 ! A125  A(57,21,59)           108.2031         estimate D2E/DX2                !
 ! A126  A(58,21,59)           107.7082         estimate D2E/DX2                !
 ! A127  A(20,22,60)           110.9084         estimate D2E/DX2                !
 ! A128  A(20,22,61)           111.9476         estimate D2E/DX2                !
 ! A129  A(20,22,62)           110.4212         estimate D2E/DX2                !
 ! A130  A(60,22,61)           108.2905         estimate D2E/DX2                !
 ! A131  A(60,22,62)           107.6442         estimate D2E/DX2                !
 ! A132  A(61,22,62)           107.4616         estimate D2E/DX2                !
 ! A133  A(3,23,63)            111.4582         estimate D2E/DX2                !
 ! A134  A(3,23,64)            111.6738         estimate D2E/DX2                !
 ! A135  A(3,23,65)            111.2216         estimate D2E/DX2                !
 ! A136  A(63,23,64)           107.7497         estimate D2E/DX2                !
 ! A137  A(63,23,65)           107.3474         estimate D2E/DX2                !
 ! A138  A(64,23,65)           107.1628         estimate D2E/DX2                !
 ! A139  A(3,24,66)            111.9244         estimate D2E/DX2                !
 ! A140  A(3,24,67)            110.6776         estimate D2E/DX2                !
 ! A141  A(3,24,68)            112.1877         estimate D2E/DX2                !
 ! A142  A(66,24,67)           106.8212         estimate D2E/DX2                !
 ! A143  A(66,24,68)           107.8841         estimate D2E/DX2                !
 ! A144  A(67,24,68)           107.0693         estimate D2E/DX2                !
 ! D1    D(6,1,2,3)            -61.3129         estimate D2E/DX2                !
 ! D2    D(6,1,2,27)           175.8657         estimate D2E/DX2                !
 ! D3    D(6,1,2,28)            61.9511         estimate D2E/DX2                !
 ! D4    D(25,1,2,3)            60.6171         estimate D2E/DX2                !
 ! D5    D(25,1,2,27)          -62.2043         estimate D2E/DX2                !
 ! D6    D(25,1,2,28)         -176.1189         estimate D2E/DX2                !
 ! D7    D(26,1,2,3)           176.6301         estimate D2E/DX2                !
 ! D8    D(26,1,2,27)           53.8087         estimate D2E/DX2                !
 ! D9    D(26,1,2,28)          -60.106          estimate D2E/DX2                !
 ! D10   D(2,1,6,5)             32.1214         estimate D2E/DX2                !
 ! D11   D(2,1,6,30)           155.6893         estimate D2E/DX2                !
 ! D12   D(2,1,6,31)           -91.5543         estimate D2E/DX2                !
 ! D13   D(25,1,6,5)           -89.8956         estimate D2E/DX2                !
 ! D14   D(25,1,6,30)           33.6723         estimate D2E/DX2                !
 ! D15   D(25,1,6,31)          146.4287         estimate D2E/DX2                !
 ! D16   D(26,1,6,5)           154.5853         estimate D2E/DX2                !
 ! D17   D(26,1,6,30)          -81.8468         estimate D2E/DX2                !
 ! D18   D(26,1,6,31)           30.9096         estimate D2E/DX2                !
 ! D19   D(1,2,3,4)             28.0019         estimate D2E/DX2                !
 ! D20   D(1,2,3,23)           -90.8292         estimate D2E/DX2                !
 ! D21   D(1,2,3,24)           154.1464         estimate D2E/DX2                !
 ! D22   D(27,2,3,4)           150.1255         estimate D2E/DX2                !
 ! D23   D(27,2,3,23)           31.2944         estimate D2E/DX2                !
 ! D24   D(27,2,3,24)          -83.73           estimate D2E/DX2                !
 ! D25   D(28,2,3,4)           -93.9942         estimate D2E/DX2                !
 ! D26   D(28,2,3,23)          147.1747         estimate D2E/DX2                !
 ! D27   D(28,2,3,24)           32.1503         estimate D2E/DX2                !
 ! D28   D(2,3,4,5)             31.1149         estimate D2E/DX2                !
 ! D29   D(2,3,4,16)           162.571          estimate D2E/DX2                !
 ! D30   D(2,3,4,29)           -83.4829         estimate D2E/DX2                !
 ! D31   D(23,3,4,5)           149.7496         estimate D2E/DX2                !
 ! D32   D(23,3,4,16)          -78.7942         estimate D2E/DX2                !
 ! D33   D(23,3,4,29)           35.1519         estimate D2E/DX2                !
 ! D34   D(24,3,4,5)           -91.8666         estimate D2E/DX2                !
 ! D35   D(24,3,4,16)           39.5896         estimate D2E/DX2                !
 ! D36   D(24,3,4,29)          153.5357         estimate D2E/DX2                !
 ! D37   D(2,3,23,63)           61.5261         estimate D2E/DX2                !
 ! D38   D(2,3,23,64)         -177.8968         estimate D2E/DX2                !
 ! D39   D(2,3,23,65)          -58.2299         estimate D2E/DX2                !
 ! D40   D(4,3,23,63)          -59.1426         estimate D2E/DX2                !
 ! D41   D(4,3,23,64)           61.4345         estimate D2E/DX2                !
 ! D42   D(4,3,23,65)         -178.8986         estimate D2E/DX2                !
 ! D43   D(24,3,23,63)         177.7996         estimate D2E/DX2                !
 ! D44   D(24,3,23,64)         -61.6233         estimate D2E/DX2                !
 ! D45   D(24,3,23,65)          58.0436         estimate D2E/DX2                !
 ! D46   D(2,3,24,66)          172.4762         estimate D2E/DX2                !
 ! D47   D(2,3,24,67)           53.4418         estimate D2E/DX2                !
 ! D48   D(2,3,24,68)          -66.0802         estimate D2E/DX2                !
 ! D49   D(4,3,24,66)          -62.9924         estimate D2E/DX2                !
 ! D50   D(4,3,24,67)          177.9732         estimate D2E/DX2                !
 ! D51   D(4,3,24,68)           58.4512         estimate D2E/DX2                !
 ! D52   D(23,3,24,66)          56.4512         estimate D2E/DX2                !
 ! D53   D(23,3,24,67)         -62.5831         estimate D2E/DX2                !
 ! D54   D(23,3,24,68)         177.8949         estimate D2E/DX2                !
 ! D55   D(3,4,5,6)            -57.9474         estimate D2E/DX2                !
 ! D56   D(3,4,5,7)             60.5942         estimate D2E/DX2                !
 ! D57   D(3,4,5,8)           -175.3645         estimate D2E/DX2                !
 ! D58   D(16,4,5,6)           169.8729         estimate D2E/DX2                !
 ! D59   D(16,4,5,7)           -71.5855         estimate D2E/DX2                !
 ! D60   D(16,4,5,8)            52.4558         estimate D2E/DX2                !
 ! D61   D(29,4,5,6)            57.1201         estimate D2E/DX2                !
 ! D62   D(29,4,5,7)           175.6617         estimate D2E/DX2                !
 ! D63   D(29,4,5,8)           -60.297          estimate D2E/DX2                !
 ! D64   D(3,4,16,15)          169.8133         estimate D2E/DX2                !
 ! D65   D(3,4,16,47)          -66.7898         estimate D2E/DX2                !
 ! D66   D(3,4,16,48)           50.353          estimate D2E/DX2                !
 ! D67   D(5,4,16,15)          -57.2602         estimate D2E/DX2                !
 ! D68   D(5,4,16,47)           66.1367         estimate D2E/DX2                !
 ! D69   D(5,4,16,48)         -176.7205         estimate D2E/DX2                !
 ! D70   D(29,4,16,15)          55.4358         estimate D2E/DX2                !
 ! D71   D(29,4,16,47)         178.8327         estimate D2E/DX2                !
 ! D72   D(29,4,16,48)         -64.0245         estimate D2E/DX2                !
 ! D73   D(4,5,6,1)             24.7165         estimate D2E/DX2                !
 ! D74   D(4,5,6,30)           -96.5459         estimate D2E/DX2                !
 ! D75   D(4,5,6,31)           147.9008         estimate D2E/DX2                !
 ! D76   D(7,5,6,1)            -97.1406         estimate D2E/DX2                !
 ! D77   D(7,5,6,30)           141.597          estimate D2E/DX2                !
 ! D78   D(7,5,6,31)            26.0437         estimate D2E/DX2                !
 ! D79   D(8,5,6,1)            142.1437         estimate D2E/DX2                !
 ! D80   D(8,5,6,30)            20.8813         estimate D2E/DX2                !
 ! D81   D(8,5,6,31)           -94.672          estimate D2E/DX2                !
 ! D82   D(4,5,7,32)            43.818          estimate D2E/DX2                !
 ! D83   D(4,5,7,33)           -75.9939         estimate D2E/DX2                !
 ! D84   D(4,5,7,34)           165.7861         estimate D2E/DX2                !
 ! D85   D(6,5,7,32)           162.7869         estimate D2E/DX2                !
 ! D86   D(6,5,7,33)            42.9751         estimate D2E/DX2                !
 ! D87   D(6,5,7,34)           -75.245          estimate D2E/DX2                !
 ! D88   D(8,5,7,32)           -78.4907         estimate D2E/DX2                !
 ! D89   D(8,5,7,33)           161.6974         estimate D2E/DX2                !
 ! D90   D(8,5,7,34)            43.4773         estimate D2E/DX2                !
 ! D91   D(4,5,8,9)            176.6673         estimate D2E/DX2                !
 ! D92   D(4,5,8,14)           -50.9728         estimate D2E/DX2                !
 ! D93   D(4,5,8,35)            63.2463         estimate D2E/DX2                !
 ! D94   D(6,5,8,9)             59.4578         estimate D2E/DX2                !
 ! D95   D(6,5,8,14)          -168.1823         estimate D2E/DX2                !
 ! D96   D(6,5,8,35)           -53.9632         estimate D2E/DX2                !
 ! D97   D(7,5,8,9)            -58.6326         estimate D2E/DX2                !
 ! D98   D(7,5,8,14)            73.7272         estimate D2E/DX2                !
 ! D99   D(7,5,8,35)          -172.0537         estimate D2E/DX2                !
 ! D100  D(5,8,9,10)          -166.1154         estimate D2E/DX2                !
 ! D101  D(5,8,9,36)            71.7902         estimate D2E/DX2                !
 ! D102  D(5,8,9,37)           -46.3047         estimate D2E/DX2                !
 ! D103  D(14,8,9,10)           58.746          estimate D2E/DX2                !
 ! D104  D(14,8,9,36)          -63.3484         estimate D2E/DX2                !
 ! D105  D(14,8,9,37)          178.5567         estimate D2E/DX2                !
 ! D106  D(35,8,9,10)          -53.4476         estimate D2E/DX2                !
 ! D107  D(35,8,9,36)         -175.5421         estimate D2E/DX2                !
 ! D108  D(35,8,9,37)           66.363          estimate D2E/DX2                !
 ! D109  D(5,8,14,13)          167.58           estimate D2E/DX2                !
 ! D110  D(5,8,14,15)           49.5349         estimate D2E/DX2                !
 ! D111  D(5,8,14,17)          -71.4792         estimate D2E/DX2                !
 ! D112  D(9,8,14,13)          -58.7697         estimate D2E/DX2                !
 ! D113  D(9,8,14,15)         -176.8148         estimate D2E/DX2                !
 ! D114  D(9,8,14,17)           62.1711         estimate D2E/DX2                !
 ! D115  D(35,8,14,13)          53.765          estimate D2E/DX2                !
 ! D116  D(35,8,14,15)         -64.28           estimate D2E/DX2                !
 ! D117  D(35,8,14,17)         174.7059         estimate D2E/DX2                !
 ! D118  D(8,9,10,11)          -55.3059         estimate D2E/DX2                !
 ! D119  D(8,9,10,38)           66.8163         estimate D2E/DX2                !
 ! D120  D(8,9,10,39)         -177.509          estimate D2E/DX2                !
 ! D121  D(36,9,10,11)          68.1837         estimate D2E/DX2                !
 ! D122  D(36,9,10,38)        -169.6941         estimate D2E/DX2                !
 ! D123  D(36,9,10,39)         -54.0193         estimate D2E/DX2                !
 ! D124  D(37,9,10,11)        -177.0591         estimate D2E/DX2                !
 ! D125  D(37,9,10,38)         -54.9369         estimate D2E/DX2                !
 ! D126  D(37,9,10,39)          60.7378         estimate D2E/DX2                !
 ! D127  D(9,10,11,12)         178.818          estimate D2E/DX2                !
 ! D128  D(9,10,11,13)          53.3271         estimate D2E/DX2                !
 ! D129  D(9,10,11,40)         -66.0589         estimate D2E/DX2                !
 ! D130  D(38,10,11,12)         57.0168         estimate D2E/DX2                !
 ! D131  D(38,10,11,13)        -68.4741         estimate D2E/DX2                !
 ! D132  D(38,10,11,40)        172.1399         estimate D2E/DX2                !
 ! D133  D(39,10,11,12)        -59.5634         estimate D2E/DX2                !
 ! D134  D(39,10,11,13)        174.9457         estimate D2E/DX2                !
 ! D135  D(39,10,11,40)         55.5597         estimate D2E/DX2                !
 ! D136  D(10,11,12,41)        -68.4855         estimate D2E/DX2                !
 ! D137  D(10,11,12,42)         51.2389         estimate D2E/DX2                !
 ! D138  D(10,11,12,43)        169.9893         estimate D2E/DX2                !
 ! D139  D(13,11,12,41)         55.6922         estimate D2E/DX2                !
 ! D140  D(13,11,12,42)        175.4166         estimate D2E/DX2                !
 ! D141  D(13,11,12,43)        -65.833          estimate D2E/DX2                !
 ! D142  D(40,11,12,41)        175.5456         estimate D2E/DX2                !
 ! D143  D(40,11,12,42)        -64.73           estimate D2E/DX2                !
 ! D144  D(40,11,12,43)         54.0204         estimate D2E/DX2                !
 ! D145  D(10,11,13,14)        -54.457          estimate D2E/DX2                !
 ! D146  D(10,11,13,18)        177.7999         estimate D2E/DX2                !
 ! D147  D(10,11,13,44)         60.9603         estimate D2E/DX2                !
 ! D148  D(12,11,13,14)       -176.8641         estimate D2E/DX2                !
 ! D149  D(12,11,13,18)         55.3927         estimate D2E/DX2                !
 ! D150  D(12,11,13,44)        -61.4468         estimate D2E/DX2                !
 ! D151  D(40,11,13,14)         64.4654         estimate D2E/DX2                !
 ! D152  D(40,11,13,18)        -63.2777         estimate D2E/DX2                !
 ! D153  D(40,11,13,44)        179.8827         estimate D2E/DX2                !
 ! D154  D(11,13,14,8)          56.6074         estimate D2E/DX2                !
 ! D155  D(11,13,14,15)        173.681          estimate D2E/DX2                !
 ! D156  D(11,13,14,17)        -67.1862         estimate D2E/DX2                !
 ! D157  D(18,13,14,8)        -176.8196         estimate D2E/DX2                !
 ! D158  D(18,13,14,15)        -59.746          estimate D2E/DX2                !
 ! D159  D(18,13,14,17)         59.3868         estimate D2E/DX2                !
 ! D160  D(44,13,14,8)         -59.1304         estimate D2E/DX2                !
 ! D161  D(44,13,14,15)         57.9432         estimate D2E/DX2                !
 ! D162  D(44,13,14,17)        177.076          estimate D2E/DX2                !
 ! D163  D(11,13,18,19)        -99.9919         estimate D2E/DX2                !
 ! D164  D(11,13,18,52)         23.4488         estimate D2E/DX2                !
 ! D165  D(11,13,18,53)        139.7148         estimate D2E/DX2                !
 ! D166  D(14,13,18,19)        133.478          estimate D2E/DX2                !
 ! D167  D(14,13,18,52)       -103.0813         estimate D2E/DX2                !
 ! D168  D(14,13,18,53)         13.1847         estimate D2E/DX2                !
 ! D169  D(44,13,18,19)         16.4607         estimate D2E/DX2                !
 ! D170  D(44,13,18,52)        139.9014         estimate D2E/DX2                !
 ! D171  D(44,13,18,53)       -103.8326         estimate D2E/DX2                !
 ! D172  D(8,14,15,16)         -51.0176         estimate D2E/DX2                !
 ! D173  D(8,14,15,45)          70.5771         estimate D2E/DX2                !
 ! D174  D(8,14,15,46)        -172.6032         estimate D2E/DX2                !
 ! D175  D(13,14,15,16)       -167.7953         estimate D2E/DX2                !
 ! D176  D(13,14,15,45)        -46.2005         estimate D2E/DX2                !
 ! D177  D(13,14,15,46)         70.6191         estimate D2E/DX2                !
 ! D178  D(17,14,15,16)         72.9462         estimate D2E/DX2                !
 ! D179  D(17,14,15,45)       -165.4591         estimate D2E/DX2                !
 ! D180  D(17,14,15,46)        -48.6395         estimate D2E/DX2                !
 ! D181  D(8,14,17,49)        -170.8888         estimate D2E/DX2                !
 ! D182  D(8,14,17,50)          71.0947         estimate D2E/DX2                !
 ! D183  D(8,14,17,51)         -50.8458         estimate D2E/DX2                !
 ! D184  D(13,14,17,49)        -50.8546         estimate D2E/DX2                !
 ! D185  D(13,14,17,50)       -168.8711         estimate D2E/DX2                !
 ! D186  D(13,14,17,51)         69.1884         estimate D2E/DX2                !
 ! D187  D(15,14,17,49)         68.6235         estimate D2E/DX2                !
 ! D188  D(15,14,17,50)        -49.393          estimate D2E/DX2                !
 ! D189  D(15,14,17,51)       -171.3335         estimate D2E/DX2                !
 ! D190  D(14,15,16,4)          57.1842         estimate D2E/DX2                !
 ! D191  D(14,15,16,47)        -66.9994         estimate D2E/DX2                !
 ! D192  D(14,15,16,48)        178.0507         estimate D2E/DX2                !
 ! D193  D(45,15,16,4)         -65.0189         estimate D2E/DX2                !
 ! D194  D(45,15,16,47)        170.7974         estimate D2E/DX2                !
 ! D195  D(45,15,16,48)         55.8475         estimate D2E/DX2                !
 ! D196  D(46,15,16,4)        -179.1894         estimate D2E/DX2                !
 ! D197  D(46,15,16,47)         56.6269         estimate D2E/DX2                !
 ! D198  D(46,15,16,48)        -58.323          estimate D2E/DX2                !
 ! D199  D(13,18,19,20)        178.9317         estimate D2E/DX2                !
 ! D200  D(13,18,19,54)         56.3698         estimate D2E/DX2                !
 ! D201  D(13,18,19,55)        -59.1543         estimate D2E/DX2                !
 ! D202  D(52,18,19,20)         55.9637         estimate D2E/DX2                !
 ! D203  D(52,18,19,54)        -66.5982         estimate D2E/DX2                !
 ! D204  D(52,18,19,55)        177.8776         estimate D2E/DX2                !
 ! D205  D(53,18,19,20)        -58.6541         estimate D2E/DX2                !
 ! D206  D(53,18,19,54)        178.784          estimate D2E/DX2                !
 ! D207  D(53,18,19,55)         63.2598         estimate D2E/DX2                !
 ! D208  D(18,19,20,21)         64.2409         estimate D2E/DX2                !
 ! D209  D(18,19,20,22)        -61.3527         estimate D2E/DX2                !
 ! D210  D(18,19,20,56)       -178.5921         estimate D2E/DX2                !
 ! D211  D(54,19,20,21)       -172.1962         estimate D2E/DX2                !
 ! D212  D(54,19,20,22)         62.2102         estimate D2E/DX2                !
 ! D213  D(54,19,20,56)        -55.0292         estimate D2E/DX2                !
 ! D214  D(55,19,20,21)        -57.8104         estimate D2E/DX2                !
 ! D215  D(55,19,20,22)        176.596          estimate D2E/DX2                !
 ! D216  D(55,19,20,56)         59.3566         estimate D2E/DX2                !
 ! D217  D(19,20,21,57)        -68.0039         estimate D2E/DX2                !
 ! D218  D(19,20,21,58)        172.211          estimate D2E/DX2                !
 ! D219  D(19,20,21,59)         52.9335         estimate D2E/DX2                !
 ! D220  D(22,20,21,57)         58.6213         estimate D2E/DX2                !
 ! D221  D(22,20,21,58)        -61.1639         estimate D2E/DX2                !
 ! D222  D(22,20,21,59)        179.5587         estimate D2E/DX2                !
 ! D223  D(56,20,21,57)        175.164          estimate D2E/DX2                !
 ! D224  D(56,20,21,58)         55.3788         estimate D2E/DX2                !
 ! D225  D(56,20,21,59)        -63.8987         estimate D2E/DX2                !
 ! D226  D(19,20,22,60)        -51.6416         estimate D2E/DX2                !
 ! D227  D(19,20,22,61)         69.4329         estimate D2E/DX2                !
 ! D228  D(19,20,22,62)       -170.8816         estimate D2E/DX2                !
 ! D229  D(21,20,22,60)       -178.2888         estimate D2E/DX2                !
 ! D230  D(21,20,22,61)        -57.2142         estimate D2E/DX2                !
 ! D231  D(21,20,22,62)         62.4713         estimate D2E/DX2                !
 ! D232  D(56,20,22,60)         65.2167         estimate D2E/DX2                !
 ! D233  D(56,20,22,61)       -173.7088         estimate D2E/DX2                !
 ! D234  D(56,20,22,62)        -54.0233         estimate D2E/DX2                !
 --------------------------------------------------------------------------------
 Trust Radius=3.00D-01 FncErr=1.00D-07 GrdErr=1.00D-06 EigMax=2.50D+02 EigMin=1.00D-04
 Number of steps in this run=    408 maximum allowed number of steps=    408.
 GradGradGradGradGradGradGradGradGradGradGradGradGradGradGradGradGradGrad

 Leave Link  103 at Tue Oct 14 15:46:33 2025, MaxMem=  4294967296 cpu:               1.3 elap:               0.1
 (Enter /opt/software/gaussian/g16.b01/l202.exe)
 Stoichiometry    C24H44
 Framework group  C1[X(C24H44)]
 Deg. of freedom   198
 Full point group                 C1      NOp   1
 Largest Abelian subgroup         C1      NOp   1
 Largest concise Abelian subgroup C1      NOp   1
                         Standard orientation:                         
 ---------------------------------------------------------------------
 Center     Atomic      Atomic             Coordinates (Angstroms)
 Number     Number       Type             X           Y           Z
 ---------------------------------------------------------------------
      1          6           0       -4.313271    0.918129   -1.309388
      2          6           0       -4.863023   -0.186043   -0.422105
      3          6           0       -3.830749   -1.317466   -0.178847
      4          6           0       -2.353765   -0.772877   -0.266739
      5          6           0       -2.163654    0.715153    0.183288
      6          6           0       -3.091488    1.616549   -0.705669
      7          6           0       -2.567505    0.948545    1.657877
      8          6           0       -0.655858    1.131573   -0.081574
      9          6           0       -0.344362    2.606573    0.242343
     10          6           0        0.997810    3.023983   -0.344456
     11          6           0        2.156001    2.122139    0.103976
     12          6           0        3.439108    2.621499   -0.571075
     13          6           0        1.846900    0.615393   -0.176823
     14          6           0        0.463124    0.175784    0.482438
     15          6           0        0.119317   -1.274915    0.046449
     16          6           0       -1.311608   -1.708278    0.367293
     17          6           0        0.599690    0.217813    2.025019
     18          6           0        3.045943   -0.295477    0.227975
     19          6           0        3.903152   -0.705574   -0.981176
     20          6           0        5.125054   -1.587710   -0.655958
     21          6           0        4.727999   -2.950665   -0.088465
     22          6           0        6.119216   -0.889059    0.272179
     23          6           0       -4.023155   -2.389082   -1.284464
     24          6           0       -4.168003   -2.004854    1.161056
     25          1           0       -4.044435    0.500013   -2.287584
     26          1           0       -5.093615    1.663302   -1.502619
     27          1           0       -5.775935   -0.592434   -0.876625
     28          1           0       -5.192150    0.255145    0.525572
     29          1           0       -2.107491   -0.770137   -1.341810
     30          1           0       -2.529952    2.044065   -1.547031
     31          1           0       -3.434361    2.481172   -0.121155
     32          1           0       -2.203861    0.169925    2.327170
     33          1           0       -3.652156    0.977165    1.789760
     34          1           0       -2.205296    1.909283    2.035515
     35          1           0       -0.553904    1.054638   -1.177665
     36          1           0       -0.337796    2.789465    1.320871
     37          1           0       -1.110281    3.269862   -0.172783
     38          1           0        0.927430    3.015067   -1.439987
     39          1           0        1.201853    4.062506   -0.054609
     40          1           0        2.293862    2.259101    1.183741
     41          1           0        3.413552    2.446048   -1.651891
     42          1           0        3.567723    3.698688   -0.411458
     43          1           0        4.327993    2.134073   -0.159175
     44          1           0        1.713238    0.517353   -1.264506
     45          1           0        0.274992   -1.376452   -1.035890
     46          1           0        0.792110   -1.997712    0.520245
     47          1           0       -1.445405   -1.774318    1.450774
     48          1           0       -1.441500   -2.726812   -0.016606
     49          1           0        1.483903   -0.330253    2.365824
     50          1           0       -0.238399   -0.251635    2.537789
     51          1           0        0.691926    1.233639    2.415017
     52          1           0        3.659044    0.212828    0.979633
     53          1           0        2.698197   -1.212130    0.706619
     54          1           0        4.258113    0.186262   -1.507898
     55          1           0        3.266978   -1.244610   -1.696085
     56          1           0        5.642010   -1.771106   -1.607975
     57          1           0        4.279032   -2.865716    0.907015
     58          1           0        5.606346   -3.598519    0.000679
     59          1           0        4.009713   -3.451869   -0.746121
     60          1           0        6.384661    0.101170   -0.113557
     61          1           0        5.718794   -0.767693    1.283788
     62          1           0        7.042631   -1.472731    0.352041
     63          1           0       -3.840633   -1.973379   -2.281722
     64          1           0       -3.344925   -3.238017   -1.147348
     65          1           0       -5.045080   -2.786990   -1.278086
     66          1           0       -3.556421   -2.898214    1.327759
     67          1           0       -5.215338   -2.329769    1.176774
     68          1           0       -4.026413   -1.337072    2.014675
 ---------------------------------------------------------------------
 Rotational constants (GHZ):           0.4158130           0.1305335           0.1108640
 Leave Link  202 at Tue Oct 14 15:46:33 2025, MaxMem=  4294967296 cpu:               2.3 elap:               0.2
 (Enter /opt/software/gaussian/g16.b01/l301.exe)
 Standard basis: 6-31G(d) (6D, 7F)
 Ernie: Thresh=  0.10000D-02 Tol=  0.10000D-05 Strict=F.
 There are   448 symmetry adapted cartesian basis functions of A   symmetry.
 There are   448 symmetry adapted basis functions of A   symmetry.
   448 basis functions,   848 primitive gaussians,   448 cartesian basis functions
    94 alpha electrons       94 beta electrons
       nuclear repulsion energy      2373.4358976308 Hartrees.
 IExCor=  402 DFT=T Ex+Corr=B3LYP ExCW=0 ScaHFX=  0.200000
 ScaDFX=  0.800000  0.720000  1.000000  0.810000 ScalE2=  1.000000  1.000000
 IRadAn=      5 IRanWt=     -1 IRanGd=            0 ICorTp=0 IEmpDi=  4
 NAtoms=   68 NActive=   68 NUniq=   68 SFac= 1.00D+00 NAtFMM=   60 NAOKFM=T Big=T
 Integral buffers will be    131072 words long.
 Raffenetti 2 integral format.
 Two-electron integral symmetry is turned on.
 Leave Link  301 at Tue Oct 14 15:46:33 2025, MaxMem=  4294967296 cpu:               2.9 elap:               0.2
 (Enter /opt/software/gaussian/g16.b01/l302.exe)
 NPDir=0 NMtPBC=     1 NCelOv=     1 NCel=       1 NClECP=     1 NCelD=      1
         NCelK=      1 NCelE2=     1 NClLst=     1 CellRange=     0.0.
 One-electron integrals computed using PRISM.
 One-electron integral symmetry used in STVInt
 NBasis=   448 RedAO= T EigKep=  1.53D-03  NBF=   448
 NBsUse=   448 1.00D-06 EigRej= -1.00D+00 NBFU=   448
 Precomputing XC quadrature grid using
 IXCGrd= 4 IRadAn=           5 IRanWt=          -1 IRanGd=           0 AccXCQ= 0.00D+00.
 Generated NRdTot=       0 NPtTot=           0 NUsed=           0 NTot=          32
 NSgBfM=   446   446   446   446   446 MxSgAt=    68 MxSgA2=    68.
 Leave Link  302 at Tue Oct 14 15:46:34 2025, MaxMem=  4294967296 cpu:              20.9 elap:               0.8
 (Enter /opt/software/gaussian/g16.b01/l303.exe)
 DipDrv:  MaxL=1.
 Leave Link  303 at Tue Oct 14 15:46:35 2025, MaxMem=  4294967296 cpu:               3.6 elap:               0.2
 (Enter /opt/software/gaussian/g16.b01/l401.exe)
 ExpMin= 1.61D-01 ExpMax= 3.05D+03 ExpMxC= 4.57D+02 IAcc=3 IRadAn=         5 AccDes= 0.00D+00
 Harris functional with IExCor=  402 and IRadAn=       5 diagonalized for initial guess.
 HarFok:  IExCor=  402 AccDes= 0.00D+00 IRadAn=         5 IDoV= 1 UseB2=F ITyADJ=14
 ICtDFT=  3500011 ScaDFX=  1.000000  1.000000  1.000000  1.000000
 FoFCou: FMM=F IPFlag=           0 FMFlag=      100000 FMFlg1=        2001
         NFxFlg=           0 DoJE=T BraDBF=F KetDBF=T FulRan=T
         wScrn=  0.000000 ICntrl=       500 IOpCl=  0 I1Cent=   200000004 NGrid=           0
         NMat0=    1 NMatS0=      1 NMatT0=    0 NMatD0=    1 NMtDS0=    0 NMtDT0=    0
 Petite list used in FoFCou.
 Harris En= -941.218480904749    
 JPrj=0 DoOrth=F DoCkMO=F.
 Leave Link  401 at Tue Oct 14 15:46:36 2025, MaxMem=  4294967296 cpu:              42.6 elap:               1.5
 (Enter /opt/software/gaussian/g16.b01/l502.exe)
 Integral symmetry usage will be decided dynamically.
 Closed shell SCF:
 Using DIIS extrapolation, IDIIS=  1040.
 NGot=  4294967296 LenX=  4294545958 LenY=  4294344806
 Requested convergence on RMS density matrix=1.00D-08 within 128 cycles.
 Requested convergence on MAX density matrix=1.00D-06.
 Requested convergence on             energy=1.00D-06.
 No special actions if energy rises.
 Fock matrices will be formed incrementally for  20 cycles.
 Integral accuracy reduced to 1.0D-05 until final iterations.

 Cycle   1  Pass 0  IDiag  1:
 FoFJK:  IHMeth= 1 ICntrl=       0 DoSepK=F KAlg= 0 I1Cent=           0 FoldK=F
 IRaf= 990000000 NMat=       1 IRICut=       1 DoRegI=T DoRafI=F ISym2E= 0 IDoP0=0 IntGTp=1.
 FoFCou: FMM=T IPFlag=           0 FMFlag=      100000 FMFlg1=        2001
         NFxFlg=           0 DoJE=F BraDBF=F KetDBF=F FulRan=T
         wScrn=  0.000000 ICntrl=         0 IOpCl=  0 I1Cent=           0 NGrid=           0
         NMat0=    1 NMatS0=      1 NMatT0=    0 NMatD0=    1 NMtDS0=    0 NMtDT0=    0
 Symmetry not used in FoFCou.
 FMM levels:  10  Number of levels for PrismC:   9
 E= -940.185197978832    
 DIIS: error= 3.05D-02 at cycle   1 NSaved=   1.
 NSaved= 1 IEnMin= 1 EnMin= -940.185197978832     IErMin= 1 ErrMin= 3.05D-02
 ErrMax= 3.05D-02  0.00D+00 EMaxC= 1.00D-01 BMatC= 8.02D-01 BMatP= 8.02D-01
 IDIUse=3 WtCom= 6.95D-01 WtEn= 3.05D-01
 Coeff-Com:  0.100D+01
 Coeff-En:   0.100D+01
 Coeff:      0.100D+01
 Gap=     0.271 Goal=   None    Shift=    0.000
 GapD=    0.271 DampG=1.000 DampE=0.500 DampFc=0.5000 IDamp=-1.
 Damping current iteration by 5.00D-01
 RMSDP=5.15D-03 MaxDP=1.62D-01              OVMax= 1.74D-01

 Cycle   2  Pass 0  IDiag  1:
 RMSU=  2.54D-03    CP:  9.71D-01
 E= -940.568515345176     Delta-E=       -0.383317366344 Rises=F Damp=T
 DIIS: error= 7.08D-03 at cycle   2 NSaved=   2.
 NSaved= 2 IEnMin= 2 EnMin= -940.568515345176     IErMin= 2 ErrMin= 7.08D-03
 ErrMax= 7.08D-03  0.00D+00 EMaxC= 1.00D-01 BMatC= 4.09D-02 BMatP= 8.02D-01
 IDIUse=3 WtCom= 9.29D-01 WtEn= 7.08D-02
 Coeff-Com:  0.799D-01 0.920D+00
 Coeff-En:   0.143D+00 0.857D+00
 Coeff:      0.844D-01 0.916D+00
 Gap=     0.345 Goal=   None    Shift=    0.000
 RMSDP=1.17D-03 MaxDP=3.65D-02 DE=-3.83D-01 OVMax= 1.03D-01

 Cycle   3  Pass 0  IDiag  1:
 RMSU=  9.89D-04    CP:  9.69D-01  7.54D-01
 E= -941.061003344535     Delta-E=       -0.492487999359 Rises=F Damp=F
 DIIS: error= 2.44D-03 at cycle   3 NSaved=   3.
 NSaved= 3 IEnMin= 3 EnMin= -941.061003344535     IErMin= 3 ErrMin= 2.44D-03
 ErrMax= 2.44D-03  0.00D+00 EMaxC= 1.00D-01 BMatC= 9.02D-03 BMatP= 4.09D-02
 IDIUse=3 WtCom= 9.76D-01 WtEn= 2.44D-02
 Coeff-Com: -0.167D-02 0.274D+00 0.727D+00
 Coeff-En:   0.000D+00 0.000D+00 0.100D+01
 Coeff:     -0.163D-02 0.268D+00 0.734D+00
 Gap=     0.324 Goal=   None    Shift=    0.000
 RMSDP=4.88D-04 MaxDP=1.89D-02 DE=-4.92D-01 OVMax= 1.85D-02

 Cycle   4  Pass 0  IDiag  1:
 RMSU=  3.06D-04    CP:  9.68D-01  8.40D-01  6.85D-01
 E= -941.066434787122     Delta-E=       -0.005431442587 Rises=F Damp=F
 DIIS: error= 1.91D-03 at cycle   4 NSaved=   4.
 NSaved= 4 IEnMin= 4 EnMin= -941.066434787122     IErMin= 4 ErrMin= 1.91D-03
 ErrMax= 1.91D-03  0.00D+00 EMaxC= 1.00D-01 BMatC= 3.79D-03 BMatP= 9.02D-03
 IDIUse=3 WtCom= 9.81D-01 WtEn= 1.91D-02
 Coeff-Com: -0.756D-02 0.625D-01 0.407D+00 0.538D+00
 Coeff-En:   0.000D+00 0.000D+00 0.290D+00 0.710D+00
 Coeff:     -0.741D-02 0.613D-01 0.405D+00 0.541D+00
 Gap=     0.328 Goal=   None    Shift=    0.000
 RMSDP=1.93D-04 MaxDP=8.28D-03 DE=-5.43D-03 OVMax= 9.38D-03

 Cycle   5  Pass 0  IDiag  1:
 RMSU=  7.25D-05    CP:  9.68D-01  8.14D-01  7.88D-01  5.67D-01
 E= -941.070031373474     Delta-E=       -0.003596586352 Rises=F Damp=F
 DIIS: error= 3.36D-04 at cycle   5 NSaved=   5.
 NSaved= 5 IEnMin= 5 EnMin= -941.070031373474     IErMin= 5 ErrMin= 3.36D-04
 ErrMax= 3.36D-04  0.00D+00 EMaxC= 1.00D-01 BMatC= 1.28D-04 BMatP= 3.79D-03
 IDIUse=3 WtCom= 9.97D-01 WtEn= 3.36D-03
 Coeff-Com: -0.225D-02 0.553D-02 0.115D+00 0.229D+00 0.653D+00
 Coeff-En:   0.000D+00 0.000D+00 0.000D+00 0.000D+00 0.100D+01
 Coeff:     -0.224D-02 0.551D-02 0.114D+00 0.229D+00 0.654D+00
 Gap=     0.327 Goal=   None    Shift=    0.000
 RMSDP=3.54D-05 MaxDP=1.63D-03 DE=-3.60D-03 OVMax= 1.79D-03

 Cycle   6  Pass 0  IDiag  1:
 RMSU=  1.64D-05    CP:  9.68D-01  8.16D-01  7.86D-01  6.13D-01  6.18D-01
 E= -941.070150911212     Delta-E=       -0.000119537739 Rises=F Damp=F
 DIIS: error= 5.54D-05 at cycle   6 NSaved=   6.
 NSaved= 6 IEnMin= 6 EnMin= -941.070150911212     IErMin= 6 ErrMin= 5.54D-05
 ErrMax= 5.54D-05  0.00D+00 EMaxC= 1.00D-01 BMatC= 8.23D-06 BMatP= 1.28D-04
 IDIUse=1 WtCom= 1.00D+00 WtEn= 0.00D+00
 Coeff-Com: -0.773D-03 0.555D-03 0.445D-01 0.979D-01 0.333D+00 0.525D+00
 Coeff:     -0.773D-03 0.555D-03 0.445D-01 0.979D-01 0.333D+00 0.525D+00
 Gap=     0.327 Goal=   None    Shift=    0.000
 RMSDP=8.87D-06 MaxDP=3.66D-04 DE=-1.20D-04 OVMax= 4.29D-04

 Initial convergence to 1.0D-05 achieved.  Increase integral accuracy.
 Cycle   7  Pass 1  IDiag  1:
 E= -941.070073753042     Delta-E=        0.000077158171 Rises=F Damp=F
 DIIS: error= 5.47D-05 at cycle   1 NSaved=   1.
 NSaved= 1 IEnMin= 1 EnMin= -941.070073753042     IErMin= 1 ErrMin= 5.47D-05
 ErrMax= 5.47D-05  0.00D+00 EMaxC= 1.00D-01 BMatC= 2.96D-06 BMatP= 2.96D-06
 IDIUse=1 WtCom= 1.00D+00 WtEn= 0.00D+00
 Coeff-Com:  0.100D+01
 Coeff:      0.100D+01
 Gap=     0.327 Goal=   None    Shift=    0.000
 RMSDP=8.87D-06 MaxDP=3.66D-04 DE= 7.72D-05 OVMax= 3.16D-04

 Cycle   8  Pass 1  IDiag  1:
 RMSU=  2.33D-05    CP:  1.00D+00
 E= -941.070076061761     Delta-E=       -0.000002308719 Rises=F Damp=F
 DIIS: error= 2.00D-05 at cycle   2 NSaved=   2.
 NSaved= 2 IEnMin= 2 EnMin= -941.070076061761     IErMin= 2 ErrMin= 2.00D-05
 ErrMax= 2.00D-05  0.00D+00 EMaxC= 1.00D-01 BMatC= 6.43D-07 BMatP= 2.96D-06
 IDIUse=1 WtCom= 1.00D+00 WtEn= 0.00D+00
 Coeff-Com:  0.240D+00 0.760D+00
 Coeff:      0.240D+00 0.760D+00
 Gap=     0.327 Goal=   None    Shift=    0.000
 RMSDP=3.95D-06 MaxDP=1.64D-04 DE=-2.31D-06 OVMax= 2.00D-04

 Cycle   9  Pass 1  IDiag  1:
 RMSU=  3.93D-06    CP:  1.00D+00  9.85D-01
 E= -941.070076216617     Delta-E=       -0.000000154856 Rises=F Damp=F
 DIIS: error= 1.77D-05 at cycle   3 NSaved=   3.
 NSaved= 3 IEnMin= 3 EnMin= -941.070076216617     IErMin= 3 ErrMin= 1.77D-05
 ErrMax= 1.77D-05  0.00D+00 EMaxC= 1.00D-01 BMatC= 4.89D-07 BMatP= 6.43D-07
 IDIUse=1 WtCom= 1.00D+00 WtEn= 0.00D+00
 Coeff-Com: -0.755D-03 0.466D+00 0.535D+00
 Coeff:     -0.755D-03 0.466D+00 0.535D+00
 Gap=     0.327 Goal=   None    Shift=    0.000
 RMSDP=1.92D-06 MaxDP=7.96D-05 DE=-1.55D-07 OVMax= 1.03D-04

 Cycle  10  Pass 1  IDiag  1:
 RMSU=  4.09D-07    CP:  1.00D+00  1.00D+00  5.35D-01
 E= -941.070076695781     Delta-E=       -0.000000479164 Rises=F Damp=F
 DIIS: error= 2.08D-06 at cycle   4 NSaved=   4.
 NSaved= 4 IEnMin= 4 EnMin= -941.070076695781     IErMin= 4 ErrMin= 2.08D-06
 ErrMax= 2.08D-06  0.00D+00 EMaxC= 1.00D-01 BMatC= 4.05D-09 BMatP= 4.89D-07
 IDIUse=1 WtCom= 1.00D+00 WtEn= 0.00D+00
 Coeff-Com: -0.302D-02 0.222D+00 0.264D+00 0.517D+00
 Coeff:     -0.302D-02 0.222D+00 0.264D+00 0.517D+00
 Gap=     0.327 Goal=   None    Shift=    0.000
 RMSDP=1.97D-07 MaxDP=8.49D-06 DE=-4.79D-07 OVMax= 9.00D-06

 Cycle  11  Pass 1  IDiag  1:
 RMSU=  9.67D-08    CP:  1.00D+00  1.00D+00  5.45D-01  5.93D-01
 E= -941.070076699603     Delta-E=       -0.000000003823 Rises=F Damp=F
 DIIS: error= 3.05D-07 at cycle   5 NSaved=   5.
 NSaved= 5 IEnMin= 5 EnMin= -941.070076699603     IErMin= 5 ErrMin= 3.05D-07
 ErrMax= 3.05D-07  0.00D+00 EMaxC= 1.00D-01 BMatC= 1.88D-10 BMatP= 4.05D-09
 IDIUse=1 WtCom= 1.00D+00 WtEn= 0.00D+00
 Coeff-Com: -0.152D-02 0.932D-01 0.112D+00 0.264D+00 0.532D+00
 Coeff:     -0.152D-02 0.932D-01 0.112D+00 0.264D+00 0.532D+00
 Gap=     0.327 Goal=   None    Shift=    0.000
 RMSDP=4.51D-08 MaxDP=1.42D-06 DE=-3.82D-09 OVMax= 1.79D-06

 Cycle  12  Pass 1  IDiag  1:
 RMSU=  2.95D-08    CP:  1.00D+00  1.00D+00  5.44D-01  6.02D-01  6.55D-01
 E= -941.070076699776     Delta-E=       -0.000000000173 Rises=F Damp=F
 DIIS: error= 5.04D-08 at cycle   6 NSaved=   6.
 NSaved= 6 IEnMin= 6 EnMin= -941.070076699776     IErMin= 6 ErrMin= 5.04D-08
 ErrMax= 5.04D-08  0.00D+00 EMaxC= 1.00D-01 BMatC= 3.65D-12 BMatP= 1.88D-10
 IDIUse=1 WtCom= 1.00D+00 WtEn= 0.00D+00
 Coeff-Com: -0.237D-03 0.124D-01 0.149D-01 0.422D-01 0.154D+00 0.776D+00
 Coeff:     -0.237D-03 0.124D-01 0.149D-01 0.422D-01 0.154D+00 0.776D+00
 Gap=     0.327 Goal=   None    Shift=    0.000
 RMSDP=8.70D-09 MaxDP=3.74D-07 DE=-1.73D-10 OVMax= 3.60D-07

 SCF Done:  E(RB3LYP) =  -941.070076700     A.U. after   12 cycles
            NFock= 12  Conv=0.87D-08     -V/T= 2.0100
 KE= 9.317459832699D+02 PE=-6.921282472435D+03 EE= 2.675030514834D+03
 Leave Link  502 at Tue Oct 14 15:46:57 2025, MaxMem=  4294967296 cpu:             650.0 elap:              21.1
 (Enter /opt/software/gaussian/g16.b01/l601.exe)
 Copying SCF densities to generalized density rwf, IOpCl= 0 IROHF=0.

 **********************************************************************

            Population analysis using the SCF Density.

 **********************************************************************

 Orbital symmetries:
       Occupied  (A) (A) (A) (A) (A) (A) (A) (A) (A) (A) (A) (A)
                 (A) (A) (A) (A) (A) (A) (A) (A) (A) (A) (A) (A)
                 (A) (A) (A) (A) (A) (A) (A) (A) (A) (A) (A) (A)
                 (A) (A) (A) (A) (A) (A) (A) (A) (A) (A) (A) (A)
                 (A) (A) (A) (A) (A) (A) (A) (A) (A) (A) (A) (A)
                 (A) (A) (A) (A) (A) (A) (A) (A) (A) (A) (A) (A)
                 (A) (A) (A) (A) (A) (A) (A) (A) (A) (A) (A) (A)
                 (A) (A) (A) (A) (A) (A) (A) (A) (A) (A)
       Virtual   (A) (A) (A) (A) (A) (A) (A) (A) (A) (A) (A) (A)
                 (A) (A) (A) (A) (A) (A) (A) (A) (A) (A) (A) (A)
                 (A) (A) (A) (A) (A) (A) (A) (A) (A) (A) (A) (A)
                 (A) (A) (A) (A) (A) (A) (A) (A) (A) (A) (A) (A)
                 (A) (A) (A) (A) (A) (A) (A) (A) (A) (A) (A) (A)
                 (A) (A) (A) (A) (A) (A) (A) (A) (A) (A) (A) (A)
                 (A) (A) (A) (A) (A) (A) (A) (A) (A) (A) (A) (A)
                 (A) (A) (A) (A) (A) (A) (A) (A) (A) (A) (A) (A)
                 (A) (A) (A) (A) (A) (A) (A) (A) (A) (A) (A) (A)
                 (A) (A) (A) (A) (A) (A) (A) (A) (A) (A) (A) (A)
                 (A) (A) (A) (A) (A) (A) (A) (A) (A) (A) (A) (A)
                 (A) (A) (A) (A) (A) (A) (A) (A) (A) (A) (A) (A)
                 (A) (A) (A) (A) (A) (A) (A) (A) (A) (A) (A) (A)
                 (A) (A) (A) (A) (A) (A) (A) (A) (A) (A) (A) (A)
                 (A) (A) (A) (A) (A) (A) (A) (A) (A) (A) (A) (A)
                 (A) (A) (A) (A) (A) (A) (A) (A) (A) (A) (A) (A)
                 (A) (A) (A) (A) (A) (A) (A) (A) (A) (A) (A) (A)
                 (A) (A) (A) (A) (A) (A) (A) (A) (A) (A) (A) (A)
                 (A) (A) (A) (A) (A) (A) (A) (A) (A) (A) (A) (A)
                 (A) (A) (A) (A) (A) (A) (A) (A) (A) (A) (A) (A)
                 (A) (A) (A) (A) (A) (A) (A) (A) (A) (A) (A) (A)
                 (A) (A) (A) (A) (A) (A) (A) (A) (A) (A) (A) (A)
                 (A) (A) (A) (A) (A) (A) (A) (A) (A) (A) (A) (A)
                 (A) (A) (A) (A) (A) (A) (A) (A) (A) (A) (A) (A)
                 (A) (A) (A) (A) (A) (A) (A) (A) (A) (A) (A) (A)
                 (A) (A) (A) (A) (A) (A) (A) (A) (A) (A) (A) (A)
                 (A) (A) (A) (A) (A) (A) (A) (A) (A) (A) (A) (A)
                 (A) (A) (A) (A) (A) (A) (A) (A) (A) (A) (A) (A)
                 (A) (A) (A) (A) (A) (A) (A) (A) (A) (A) (A) (A)
                 (A) (A) (A) (A) (A) (A)
 The electronic state is 1-A.
 Alpha  occ. eigenvalues --  -10.18930 -10.18903 -10.18889 -10.18004 -10.17871
 Alpha  occ. eigenvalues --  -10.17755 -10.17728 -10.17641 -10.17048 -10.16997
 Alpha  occ. eigenvalues --  -10.16947 -10.16934 -10.16867 -10.16864 -10.16858
 Alpha  occ. eigenvalues --  -10.16795 -10.16739 -10.16650 -10.16633 -10.16585
 Alpha  occ. eigenvalues --  -10.16556 -10.16353 -10.16297 -10.16238  -0.85238
 Alpha  occ. eigenvalues --   -0.82872  -0.80383  -0.78866  -0.78126  -0.75671
 Alpha  occ. eigenvalues --   -0.74260  -0.73039  -0.71045  -0.67971  -0.67648
 Alpha  occ. eigenvalues --   -0.67256  -0.66624  -0.66271  -0.66100  -0.62341
 Alpha  occ. eigenvalues --   -0.60630  -0.58277  -0.58032  -0.55041  -0.53979
 Alpha  occ. eigenvalues --   -0.53773  -0.51734  -0.49918  -0.47083  -0.46397
 Alpha  occ. eigenvalues --   -0.45930  -0.45619  -0.45398  -0.44794  -0.44122
 Alpha  occ. eigenvalues --   -0.43465  -0.42274  -0.42023  -0.41454  -0.41347
 Alpha  occ. eigenvalues --   -0.41187  -0.40494  -0.39443  -0.38889  -0.38629
 Alpha  occ. eigenvalues --   -0.38540  -0.38255  -0.37594  -0.37156  -0.36746
 Alpha  occ. eigenvalues --   -0.36585  -0.36245  -0.35970  -0.35653  -0.34846
 Alpha  occ. eigenvalues --   -0.34259  -0.34077  -0.33377  -0.33049  -0.32877
 Alpha  occ. eigenvalues --   -0.32570  -0.32352  -0.31852  -0.31658  -0.31453
 Alpha  occ. eigenvalues --   -0.31085  -0.30677  -0.30289  -0.29744  -0.29175
 Alpha  occ. eigenvalues --   -0.28444  -0.28335  -0.25840  -0.25547
 Alpha virt. eigenvalues --    0.07125   0.07853   0.08785   0.09685   0.10123
 Alpha virt. eigenvalues --    0.10582   0.10989   0.11414   0.11620   0.12038
 Alpha virt. eigenvalues --    0.13027   0.13231   0.13630   0.14082   0.14277
 Alpha virt. eigenvalues --    0.14589   0.15402   0.15429   0.16003   0.16627
 Alpha virt. eigenvalues --    0.16730   0.16912   0.17260   0.17562   0.17694
 Alpha virt. eigenvalues --    0.18047   0.18387   0.18729   0.18984   0.19068
 Alpha virt. eigenvalues --    0.19500   0.19783   0.20065   0.20447   0.20915
 Alpha virt. eigenvalues --    0.21242   0.21333   0.21521   0.22397   0.22698
 Alpha virt. eigenvalues --    0.22870   0.23067   0.23320   0.23794   0.23921
 Alpha virt. eigenvalues --    0.24136   0.24359   0.24782   0.25358   0.25536
 Alpha virt. eigenvalues --    0.26229   0.26638   0.27205   0.27377   0.27880
 Alpha virt. eigenvalues --    0.28174   0.28719   0.29029   0.29936   0.30169
 Alpha virt. eigenvalues --    0.30512   0.31538   0.32080   0.32536   0.33254
 Alpha virt. eigenvalues --    0.33993   0.35105   0.35928   0.36393   0.37466
 Alpha virt. eigenvalues --    0.49457   0.50040   0.50291   0.50661   0.51452
 Alpha virt. eigenvalues --    0.51795   0.52290   0.52463   0.53058   0.54088
 Alpha virt. eigenvalues --    0.54815   0.55235   0.56037   0.56595   0.57512
 Alpha virt. eigenvalues --    0.58576   0.59503   0.59694   0.60684   0.61879
 Alpha virt. eigenvalues --    0.62899   0.63181   0.63470   0.64736   0.64966
 Alpha virt. eigenvalues --    0.65893   0.66378   0.67163   0.67693   0.67880
 Alpha virt. eigenvalues --    0.68820   0.70143   0.70488   0.71364   0.72027
 Alpha virt. eigenvalues --    0.72775   0.72864   0.73250   0.74196   0.74300
 Alpha virt. eigenvalues --    0.74692   0.75311   0.76624   0.77560   0.77839
 Alpha virt. eigenvalues --    0.78908   0.79506   0.80655   0.81100   0.82198
 Alpha virt. eigenvalues --    0.83112   0.83735   0.83956   0.84926   0.85439
 Alpha virt. eigenvalues --    0.85985   0.86247   0.86776   0.87060   0.87573
 Alpha virt. eigenvalues --    0.87984   0.88215   0.88670   0.88932   0.89501
 Alpha virt. eigenvalues --    0.89752   0.89899   0.90855   0.91386   0.91585
 Alpha virt. eigenvalues --    0.91875   0.92098   0.92436   0.93105   0.93303
 Alpha virt. eigenvalues --    0.93469   0.94028   0.94220   0.94480   0.95162
 Alpha virt. eigenvalues --    0.95527   0.96071   0.96327   0.96491   0.96700
 Alpha virt. eigenvalues --    0.97202   0.97581   0.98615   0.98872   0.99863
 Alpha virt. eigenvalues --    1.00294   1.00360   1.00797   1.01751   1.02296
 Alpha virt. eigenvalues --    1.02956   1.02967   1.03684   1.05135   1.05612
 Alpha virt. eigenvalues --    1.05716   1.06250   1.06376   1.07910   1.08160
 Alpha virt. eigenvalues --    1.09602   1.10785   1.13567   1.13994   1.15493
 Alpha virt. eigenvalues --    1.16895   1.18661   1.20805   1.22381   1.24713
 Alpha virt. eigenvalues --    1.25246   1.27398   1.28610   1.29420   1.29866
 Alpha virt. eigenvalues --    1.32687   1.33817   1.36736   1.39443   1.40720
 Alpha virt. eigenvalues --    1.41961   1.45088   1.45466   1.46109   1.48241
 Alpha virt. eigenvalues --    1.50511   1.51014   1.53501   1.53993   1.56930
 Alpha virt. eigenvalues --    1.58398   1.59418   1.62251   1.63362   1.64302
 Alpha virt. eigenvalues --    1.65466   1.68090   1.69690   1.69886   1.70235
 Alpha virt. eigenvalues --    1.72092   1.72506   1.74271   1.75162   1.75678
 Alpha virt. eigenvalues --    1.77619   1.78168   1.78872   1.79706   1.80338
 Alpha virt. eigenvalues --    1.80909   1.82940   1.83768   1.85118   1.86321
 Alpha virt. eigenvalues --    1.86502   1.86993   1.87870   1.88411   1.89985
 Alpha virt. eigenvalues --    1.90937   1.91849   1.92657   1.93490   1.94371
 Alpha virt. eigenvalues --    1.95515   1.96190   1.96653   1.97819   1.98873
 Alpha virt. eigenvalues --    1.99400   2.00736   2.00967   2.01569   2.02376
 Alpha virt. eigenvalues --    2.02829   2.03415   2.04208   2.05094   2.05416
 Alpha virt. eigenvalues --    2.06346   2.07417   2.08724   2.09111   2.10029
 Alpha virt. eigenvalues --    2.11087   2.12139   2.12767   2.13991   2.14879
 Alpha virt. eigenvalues --    2.15489   2.16026   2.17441   2.18368   2.20340
 Alpha virt. eigenvalues --    2.21031   2.21352   2.23591   2.24720   2.25967
[...]
   669. RY*(   2) H  34                  0.00028     2.09344   
   670. RY*(   3) H  34                  0.00014     2.31619   
   671. RY*(   4) H  34                  0.00010     2.13275   
   672. RY*(   5) H  34                  0.00004     2.73672   
   673. RY*(   1) H  35                  0.00105     1.24100   
   674. RY*(   2) H  35                  0.00030     2.05017   
   675. RY*(   3) H  35                  0.00015     2.61575   
   676. RY*(   4) H  35                  0.00014     2.55176   
   677. RY*(   5) H  35                  0.00005     3.21071   
   678. RY*(   1) H  36                  0.00106     1.37631   
   679. RY*(   2) H  36                  0.00026     1.86312   
   680. RY*(   3) H  36                  0.00013     2.36766   
   681. RY*(   4) H  36                  0.00008     2.10987   
   682. RY*(   5) H  36                  0.00004     2.94346   
   683. RY*(   1) H  37                  0.00093     1.23091   
   684. RY*(   2) H  37                  0.00030     1.87684   
   685. RY*(   3) H  37                  0.00013     2.44538   
   686. RY*(   4) H  37                  0.00008     2.23839   
   687. RY*(   5) H  37                  0.00004     3.00432   
   688. RY*(   1) H  38                  0.00118     1.47107   
   689. RY*(   2) H  38                  0.00020     1.71733   
   690. RY*(   3) H  38                  0.00013     2.29594   
   691. RY*(   4) H  38                  0.00008     2.28134   
   692. RY*(   5) H  38                  0.00004     2.77748   
   693. RY*(   1) H  39                  0.00094     0.88707   
   694. RY*(   2) H  39                  0.00030     2.12152   
   695. RY*(   3) H  39                  0.00015     2.36307   
   696. RY*(   4) H  39                  0.00006     2.21994   
   697. RY*(   5) H  39                  0.00004     2.97414   
   698. RY*(   1) H  40                  0.00157     0.71962   
   699. RY*(   2) H  40                  0.00020     2.30520   
   700. RY*(   3) H  40                  0.00016     2.40615   
   701. RY*(   4) H  40                  0.00014     2.35382   
   702. RY*(   5) H  40                  0.00003     3.00420   
   703. RY*(   1) H  41                  0.00104     1.06865   
   704. RY*(   2) H  41                  0.00014     1.99897   
   705. RY*(   3) H  41                  0.00012     2.01505   
   706. RY*(   4) H  41                  0.00009     2.40649   
   707. RY*(   5) H  41                  0.00003     2.47476   
   708. RY*(   1) H  42                  0.00083     0.86071   
   709. RY*(   2) H  42                  0.00016     2.05291   
   710. RY*(   3) H  42                  0.00011     2.22824   
   711. RY*(   4) H  42                  0.00006     2.13668   
   712. RY*(   5) H  42                  0.00003     2.67603   
   713. RY*(   1) H  43                  0.00067     0.99928   
   714. RY*(   2) H  43                  0.00016     2.01939   
   715. RY*(   3) H  43                  0.00013     2.24786   
   716. RY*(   4) H  43                  0.00009     2.08882   
   717. RY*(   5) H  43                  0.00004     2.71778   
   718. RY*(   1) H  44                  0.00121     0.93213   
   719. RY*(   2) H  44                  0.00021     2.26955   
   720. RY*(   3) H  44                  0.00012     2.42654   
   721. RY*(   4) H  44                  0.00013     2.44447   
   722. RY*(   5) H  44                  0.00005     3.21245   
   723. RY*(   1) H  45                  0.00093     1.55897   
   724. RY*(   2) H  45                  0.00025     1.80661   
   725. RY*(   3) H  45                  0.00014     2.43769   
   726. RY*(   4) H  45                  0.00008     2.32287   
   727. RY*(   5) H  45                  0.00004     2.71406   
   728. RY*(   1) H  46                  0.00082     1.13441   
   729. RY*(   2) H  46                  0.00032     2.06235   
   730. RY*(   3) H  46                  0.00015     2.47802   
   731. RY*(   4) H  46                  0.00009     2.39241   
   732. RY*(   5) H  46                  0.00004     2.82038   
   733. RY*(   1) H  47                  0.00102     1.32460   
   734. RY*(   2) H  47                  0.00025     1.97161   
   735. RY*(   3) H  47                  0.00014     2.37619   
   736. RY*(   4) H  47                  0.00010     2.16079   
   737. RY*(   5) H  47                  0.00004     2.97480   
   738. RY*(   1) H  48                  0.00109     1.20701   
   739. RY*(   2) H  48                  0.00031     1.91040   
   740. RY*(   3) H  48                  0.00015     2.39213   
   741. RY*(   4) H  48                  0.00007     2.32671   
   742. RY*(   5) H  48                  0.00004     2.93632   
   743. RY*(   1) H  49                  0.00067     1.05944   
   744. RY*(   2) H  49                  0.00028     2.03302   
   745. RY*(   3) H  49                  0.00014     2.36246   
   746. RY*(   4) H  49                  0.00010     2.07035   
   747. RY*(   5) H  49                  0.00003     2.72747   
   748. RY*(   1) H  50                  0.00084     1.01324   
   749. RY*(   2) H  50                  0.00019     2.19664   
   750. RY*(   3) H  50                  0.00013     2.09699   
   751. RY*(   4) H  50                  0.00013     2.28882   
   752. RY*(   5) H  50                  0.00003     2.69859   
   753. RY*(   1) H  51                  0.00079     1.32383   
   754. RY*(   2) H  51                  0.00030     1.88051   
   755. RY*(   3) H  51                  0.00014     2.09973   
   756. RY*(   4) H  51                  0.00013     2.32718   
   757. RY*(   5) H  51                  0.00003     2.71507   
   758. RY*(   1) H  52                  0.00101     1.23949   
   759. RY*(   2) H  52                  0.00023     1.94458   
   760. RY*(   3) H  52                  0.00013     2.38053   
   761. RY*(   4) H  52                  0.00011     2.41198   
   762. RY*(   5) H  52                  0.00004     2.84974   
   763. RY*(   1) H  53                  0.00107     1.30328   
   764. RY*(   2) H  53                  0.00024     1.95263   
   765. RY*(   3) H  53                  0.00014     2.35513   
   766. RY*(   4) H  53                  0.00010     2.24298   
   767. RY*(   5) H  53                  0.00005     2.99373   
   768. RY*(   1) H  54                  0.00081     1.11747   
   769. RY*(   2) H  54                  0.00022     2.08963   
   770. RY*(   3) H  54                  0.00014     2.26736   
   771. RY*(   4) H  54                  0.00007     2.23912   
   772. RY*(   5) H  54                  0.00004     2.82876   
   773. RY*(   1) H  55                  0.00080     1.29449   
   774. RY*(   2) H  55                  0.00023     1.94372   
   775. RY*(   3) H  55                  0.00013     2.22530   
   776. RY*(   4) H  55                  0.00008     2.19554   
   777. RY*(   5) H  55                  0.00004     2.87357   
   778. RY*(   1) H  56                  0.00238     0.42327   
   779. RY*(   2) H  56                  0.00015     2.30529   
   780. RY*(   3) H  56                  0.00016     2.29713   
   781. RY*(   4) H  56                  0.00010     2.33145   
   782. RY*(   5) H  56                  0.00003     2.94373   
   783. RY*(   1) H  57                  0.00084     0.86252   
   784. RY*(   2) H  57                  0.00016     2.05827   
   785. RY*(   3) H  57                  0.00012     2.00148   
   786. RY*(   4) H  57                  0.00008     2.37882   
   787. RY*(   5) H  57                  0.00004     2.57756   
   788. RY*(   1) H  58                  0.00058     0.84030   
   789. RY*(   2) H  58                  0.00016     2.03327   
   790. RY*(   3) H  58                  0.00010     2.01485   
   791. RY*(   4) H  58                  0.00006     2.27421   
   792. RY*(   5) H  58                  0.00003     2.64785   
   793. RY*(   1) H  59                  0.00056     0.95915   
   794. RY*(   2) H  59                  0.00017     2.03604   
   795. RY*(   3) H  59                  0.00013     2.07524   
   796. RY*(   4) H  59                  0.00008     2.18080   
   797. RY*(   5) H  59                  0.00003     2.56147   
   798. RY*(   1) H  60                  0.00064     0.84293   
   799. RY*(   2) H  60                  0.00016     2.05451   
   800. RY*(   3) H  60                  0.00012     2.04573   
   801. RY*(   4) H  60                  0.00007     2.19767   
   802. RY*(   5) H  60                  0.00003     2.67500   
   803. RY*(   1) H  61                  0.00090     0.84736   
   804. RY*(   2) H  61                  0.00015     2.07192   
   805. RY*(   3) H  61                  0.00012     1.98624   
   806. RY*(   4) H  61                  0.00006     2.58119   
   807. RY*(   5) H  61                  0.00004     2.35980   
   808. RY*(   1) H  62                  0.00059     0.83983   
   809. RY*(   2) H  62                  0.00016     2.03769   
   810. RY*(   3) H  62                  0.00010     2.01634   
   811. RY*(   4) H  62                  0.00006     2.29575   
   812. RY*(   5) H  62                  0.00003     2.61699   
   813. RY*(   1) H  63                  0.00068     1.07507   
   814. RY*(   2) H  63                  0.00028     1.97435   
   815. RY*(   3) H  63                  0.00014     2.33102   
   816. RY*(   4) H  63                  0.00011     2.03935   
   817. RY*(   5) H  63                  0.00002     2.61995   
   818. RY*(   1) H  64                  0.00078     1.11135   
   819. RY*(   2) H  64                  0.00030     1.99727   
   820. RY*(   3) H  64                  0.00014     2.30576   
   821. RY*(   4) H  64                  0.00011     2.07272   
   822. RY*(   5) H  64                  0.00002     2.59219   
   823. RY*(   1) H  65                  0.00071     0.85879   
   824. RY*(   2) H  65                  0.00024     2.04904   
   825. RY*(   3) H  65                  0.00011     2.22618   
   826. RY*(   4) H  65                  0.00010     2.17733   
   827. RY*(   5) H  65                  0.00003     2.68571   
   828. RY*(   1) H  66                  0.00064     0.90574   
   829. RY*(   2) H  66                  0.00023     2.09747   
   830. RY*(   3) H  66                  0.00013     2.36750   
   831. RY*(   4) H  66                  0.00011     2.05109   
   832. RY*(   5) H  66                  0.00003     2.64402   
   833. RY*(   1) H  67                  0.00066     0.88062   
   834. RY*(   2) H  67                  0.00024     2.06205   
   835. RY*(   3) H  67                  0.00012     2.40378   
   836. RY*(   4) H  67                  0.00009     2.04023   
   837. RY*(   5) H  67                  0.00002     2.61880   
   838. RY*(   1) H  68                  0.00053     0.86519   
   839. RY*(   2) H  68                  0.00025     2.14905   
   840. RY*(   3) H  68                  0.00013     2.06923   
   841. RY*(   4) H  68                  0.00012     2.26868   
   842. RY*(   5) H  68                  0.00003     2.73801   
   843. BD*(   1) C   1 - C   2          0.01356     0.40416   
   844. BD*(   1) C   1 - C   6          0.01333     0.39446   
   845. BD*(   1) C   1 - H  25          0.01747     0.40656   
   846. BD*(   1) C   1 - H  26          0.01158     0.41153   
   847. BD*(   1) C   2 - C   3          0.02801     0.38005   
   848. BD*(   1) C   2 - H  27          0.01346     0.41879   
   849. BD*(   1) C   2 - H  28          0.01680     0.41807   
   850. BD*(   1) C   3 - C   4          0.03729     0.37742   
   851. BD*(   1) C   3 - C  23          0.02055     0.37455   
   852. BD*(   1) C   3 - C  24          0.02307     0.38006   
   853. BD*(   1) C   4 - C   5          0.03499     0.38753   
   854. BD*(   1) C   4 - C  16          0.02086     0.40312   
   855. BD*(   1) C   4 - H  29          0.02359     0.42363   
   856. BD*(   1) C   5 - C   6          0.02607     0.36637   
   857. BD*(   1) C   5 - C   7          0.02759     0.37340   
   858. BD*(   1) C   5 - C   8          0.03283     0.38224   
   859. BD*(   1) C   6 - H  30          0.01186     0.41933   
   860. BD*(   1) C   6 - H  31          0.01321     0.41754   
   861. BD*(   1) C   7 - H  32          0.00912     0.42599   
   862. BD*(   1) C   7 - H  33          0.00759     0.42451   
   863. BD*(   1) C   7 - H  34          0.00760     0.42071   
   864. BD*(   1) C   8 - C   9          0.02070     0.39663   
   865. BD*(   1) C   8 - C  14          0.03708     0.38002   
   866. BD*(   1) C   8 - H  35          0.02454     0.42030   
   867. BD*(   1) C   9 - C  10          0.01212     0.40961   
   868. BD*(   1) C   9 - H  36          0.01922     0.41014   
   869. BD*(   1) C   9 - H  37          0.01279     0.41968   
   870. BD*(   1) C  10 - C  11          0.02056     0.39973   
   871. BD*(   1) C  10 - H  38          0.01921     0.40135   
   872. BD*(   1) C  10 - H  39          0.01273     0.41090   
   873. BD*(   1) C  11 - C  12          0.01277     0.39022   
   874. BD*(   1) C  11 - C  13          0.02678     0.39156   
   875. BD*(   1) C  11 - H  40          0.02677     0.40184   
   876. BD*(   1) C  12 - H  41          0.01011     0.40117   
   877. BD*(   1) C  12 - H  42          0.00645     0.40800   
   878. BD*(   1) C  12 - H  43          0.00643     0.41576   
   879. BD*(   1) C  13 - C  14          0.03102     0.37235   
   880. BD*(   1) C  13 - C  18          0.01875     0.38587   
   881. BD*(   1) C  13 - H  44          0.02569     0.41433   
   882. BD*(   1) C  14 - C  15          0.02742     0.38753   
   883. BD*(   1) C  14 - C  17          0.02907     0.37184   
   884. BD*(   1) C  15 - C  16          0.01213     0.40889   
   885. BD*(   1) C  15 - H  45          0.01698     0.40943   
   886. BD*(   1) C  15 - H  46          0.01356     0.42082   
   887. BD*(   1) C  16 - H  47          0.01934     0.41164   
   888. BD*(   1) C  16 - H  48          0.01300     0.41359   
   889. BD*(   1) C  17 - H  49          0.00725     0.42042   
   890. BD*(   1) C  17 - H  50          0.00823     0.42728   
   891. BD*(   1) C  17 - H  51          0.00761     0.42198   
   892. BD*(   1) C  18 - C  19          0.01521     0.39676   
   893. BD*(   1) C  18 - H  52          0.01680     0.41196   
   894. BD*(   1) C  18 - H  53          0.01641     0.42383   
   895. BD*(   1) C  19 - C  20          0.02149     0.39491   
   896. BD*(   1) C  19 - H  54          0.01495     0.41316   
   897. BD*(   1) C  19 - H  55          0.01483     0.40778   
   898. BD*(   1) C  20 - C  21          0.01658     0.38728   
   899. BD*(   1) C  20 - C  22          0.01655     0.38715   
   900. BD*(   1) C  20 - H  56          0.02297     0.39023   
   901. BD*(   1) C  21 - H  57          0.00962     0.40454   
   902. BD*(   1) C  21 - H  58          0.00603     0.40785   
   903. BD*(   1) C  21 - H  59          0.00621     0.40745   
   904. BD*(   1) C  22 - H  60          0.00620     0.40749   
   905. BD*(   1) C  22 - H  61          0.00970     0.40433   
   906. BD*(   1) C  22 - H  62          0.00609     0.40771   
   907. BD*(   1) C  23 - H  63          0.00735     0.41442   
   908. BD*(   1) C  23 - H  64          0.00758     0.41607   
   909. BD*(   1) C  23 - H  65          0.00669     0.41252   
   910. BD*(   1) C  24 - H  66          0.00695     0.41669   
   911. BD*(   1) C  24 - H  67          0.00682     0.41349   
   912. BD*(   1) C  24 - H  68          0.00670     0.42356   
       -------------------------------
              Total Lewis  186.47631  ( 99.1895%)
        Valence non-Lewis    1.15045  (  0.6119%)
        Rydberg non-Lewis    0.37324  (  0.1985%)
       -------------------------------
            Total unit  1  188.00000  (100.0000%)
           Charge unit  1    0.00000
 1\1\GINC-C208\SP\RB3LYP\6-311+G(2d,p)\C24H44\TINGYI\14-Oct-2025\0\\#n 
 B3LYP/6-311+G(2d,p) POP=NBO Geom=Checkpoint\\Calculations of NBO charg
 es\\0,1\C,0,4.2308444543,-0.0478683207,-1.9163915403\C,0,4.8702357937,
 0.5286976173,-0.6524474117\C,0,3.8600350799,1.3722085389,0.1770881771\
 C,0,2.3951217518,0.8311842534,-0.0401143894\C,0,2.26044747,-0.70435132
 64,-0.3105697763\C,0,3.1015735102,-1.0499312193,-1.5934898291\C,0,2.79
 10716586,-1.5724321378,0.8559483729\C,0,0.7455166014,-1.0088188157,-0.
 6346724147\C,0,0.4766835464,-2.4785029548,-1.008059207\C,0,-0.89923274
 71,-2.6312479017,-1.6617892694\C,0,-2.0461443623,-2.0619096796,-0.8101
 180064\C,0,-3.3659966422,-2.1985379631,-1.5863334693\C,0,-1.7456154696
 ,-0.6046717925,-0.3603184621\C,0,-0.3465399454,-0.4762676026,0.3636383
 138\C,0,-0.0506891032,1.0226850317,0.6244345754\C,0,1.4003757117,1.307
 5318626,1.0295237318\C,0,-0.3909498266,-1.2280971658,1.7157783525\C,0,
 -2.9263921442,0.0000720515,0.457907193\C,0,-3.7835041416,0.9956834436,
 -0.3448988424\C,0,-4.9934536823,1.6123211454,0.3945266981\C,0,-4.58182
 10409,2.4422301865,1.6209865733\C,0,-6.0567010422,0.5670611028,0.76819
 87673\C,0,3.9097078857,2.8295083939,-0.337722659\C,0,4.3085347356,1.38
 17261474,1.6535743569\H,0,3.8352365265,0.7758984198,-2.525730189\H,0,4
 .9884898554,-0.5404467953,-2.538632675\H,0,5.7342838557,1.1550854096,-
 0.9119801282\H,0,5.2708236506,-0.2923624247,-0.0440269825\H,0,2.057490
 4523,1.2984158268,-0.9793844011\H,0,2.4424666239,-1.1125386683,-2.4680
 690919\H,0,3.5359641531,-2.0505090302,-1.4742535642\H,0,2.4022824319,-
 1.271464127,1.8311213162\H,0,3.8817920127,-1.5337759698,0.9153606593\H
 ,0,2.5231810943,-2.6238871925,0.7066932548\H,0,0.5615924501,-0.4305545
 79,-1.555897603\H,0,0.5344113267,-3.1235424788,-0.1227608079\H,0,1.245
 2446757,-2.8451064011,-1.6977471795\H,0,-0.8923024495,-2.1116264953,-2
 .6327495639\H,0,-1.0984560627,-3.6889200063,-1.8828652956\H,0,-2.13450
 15647,-2.6793067418,0.0972448336\H,0,-3.3523857681,-1.585334843,-2.496
 8375461\H,0,-3.5190639341,-3.2401008032,-1.8946154916\H,0,-4.237470645
 8,-1.9014210923,-0.9949924107\H,0,-1.6507958772,-0.0088250359,-1.28306
 52561\H,0,-0.2728725313,1.5902316964,-0.2919035464\H,0,-0.7198001554,1
 .4161328322,1.3991106578\H,0,1.6210926917,0.8420384139,1.9974563282\H,
 0,1.5113825387,2.3875584561,1.1887356695\H,0,-1.291521256,-0.953101614
 5,2.2754541352\H,0,0.4607477589,-0.983014283,2.3537364832\H,0,-0.40430
 16126,-2.3151320186,1.5987032344\H,0,-3.5574209762,-0.8109183432,0.842
 769204\H,0,-2.5478916327,0.5160632628,1.34483011\H,0,-4.1493474323,0.5
 083857371,-1.2585081857\H,0,-3.1318251839,1.8148286315,-0.6828911733\H
 ,0,-5.4613737376,2.3054277273,-0.3210724312\H,0,-4.1650990723,1.812204
 3077,2.4159720194\H,0,-5.4457125283,2.9696045391,2.0430840942\H,0,-3.8
 267454876,3.1938848183,1.3597126795\H,0,-6.3702285224,-0.014469995,-0.
 1075448331\H,0,-5.6856525395,-0.1375309233,1.5222407315\H,0,-6.9492458
 885,1.0493946208,1.1846378845\H,0,3.737830486,2.8785194098,-1.41995206
 32\H,0,3.153436302,3.4587698247,0.1457550763\H,0,4.8901457417,3.278097
 7181,-0.1354466744\H,0,3.7141078402,2.0748986546,2.2587895337\H,0,5.35
 43326692,1.7079980958,1.7190247348\H,0,4.2445756695,0.3921805647,2.115
 8156186\\Version=EM64L-G16RevB.01\State=1-A\HF=-941.3366977\RMSD=4.212
 e-09\Dipole=-0.0046335,0.0009217,-0.0572419\Quadrupole=-0.4699129,0.54
 85073,-0.0785944,-0.7801586,-0.4388707,-0.3784669\PG=C01 [X(C24H44)]\\
 @


 GOD GAVE US TWO ENDS... ONE TO SIT ON...    
 AND THE OTHER TO THINK WITH...              
 YOUR SUCCESS DEPENDS UPON WHICH END YOU     
 USE THE MOST...                             
                                             
 IT'S A CASE OF HEADS YOU WIN TAILS YOU LOSE.
          SOURCE UNKNOWN(IT'S JUST AS WELL.) 
 Job cpu time:       0 days  1 hours 47 minutes  3.3 seconds.
 Elapsed time:       0 days  1 hours 53 minutes  6.1 seconds.
 File lengths (MBytes):  RWF=    446 Int=      0 D2E=      0 Chk=     68 Scr=      2
 Normal termination of Gaussian 16 at Tue Oct 14 17:44:30 2025.
